/home/bill-peng/Projects/BNPs/BNP/RAL/AuPt10SP75RAL8.lmp (written by ASE) 

19 	 atoms 
2  atom types
0.0                      40  xlo xhi
0.0                      40  ylo yhi
0.0                      40  zlo zhi


Atoms 

     1   2      17.954999999999998      17.954999999999998                      20
     2   2      17.954999999999998                      20      17.954999999999998
     3   1                   15.91                      20                      20
     4   2      17.954999999999998                      20      22.045000000000002
     5   1      17.954999999999998      22.045000000000002                      20
     6   1                      20      17.954999999999998      17.954999999999998
     7   2                      20                   15.91                      20
     8   2                      20      17.954999999999998      22.045000000000002
     9   1      22.045000000000002      17.954999999999998                      20
    10   2                      20                      20                   15.91
    11   2                      20      22.045000000000002      17.954999999999998
    12   2      22.045000000000002                      20      17.954999999999998
    13   2                      20                      20                      20
    14   2                      20      22.045000000000002      22.045000000000002
    15   2      22.045000000000002                      20      22.045000000000002
    16   1      22.045000000000002      22.045000000000002                      20
    17   2                      20                      20                   24.09
    18   2                      20                   24.09                      20
    19   2                   24.09                      20                      20
