/home/bill-peng/Projects/BNPs/BNP/RAL/PdAu10SP25RAL8.lmp (written by ASE) 

43 	 atoms 
2  atom types
0.0                      40  xlo xhi
0.0                      40  ylo yhi
0.0                      40  zlo zhi


Atoms 

     1   1      16.109999999999999                  18.055                  18.055
     2   1                  18.055      16.109999999999999                  18.055
     3   1                  18.055                  18.055      16.109999999999999
     4   2      16.109999999999999                  18.055                  21.945
     5   2                  18.055      16.109999999999999                  21.945
     6   2                  18.055                  18.055                      20
     7   2                  18.055                  18.055      23.890000000000001
     8   2      16.109999999999999                  21.945                  18.055
     9   2                  18.055                      20                  18.055
    10   2                  18.055                  21.945      16.109999999999999
    11   2      16.109999999999999                      20                      20
    12   2      16.109999999999999                  21.945                  21.945
    13   1                  18.055                      20                  21.945
    14   2                  18.055                  21.945                      20
    15   2                  18.055                  21.945      23.890000000000001
    16   2                  18.055      23.890000000000001                  18.055
    17   2                  18.055      23.890000000000001                  21.945
    18   1                      20                  18.055                  18.055
    19   2                  21.945      16.109999999999999                  18.055
    20   2                  21.945                  18.055      16.109999999999999
    21   2                      20      16.109999999999999                      20
    22   1                      20                  18.055                  21.945
    23   2                  21.945      16.109999999999999                  21.945
    24   2                  21.945                  18.055                      20
    25   2                  21.945                  18.055      23.890000000000001
    26   2                      20                      20      16.109999999999999
    27   2                      20                  21.945                  18.055
    28   1                  21.945                      20                  18.055
    29   2                  21.945                  21.945      16.109999999999999
    30   2                      20                      20                      20
    31   2                      20                  21.945                  21.945
    32   2                  21.945                      20                  21.945
    33   2                  21.945                  21.945                      20
    34   1                      20                      20      23.890000000000001
    35   1                  21.945                  21.945      23.890000000000001
    36   2                  21.945      23.890000000000001                  18.055
    37   2                      20      23.890000000000001                      20
    38   2                  21.945      23.890000000000001                  21.945
    39   1      23.890000000000001                  18.055                  18.055
    40   2      23.890000000000001                  18.055                  21.945
    41   2      23.890000000000001                  21.945                  18.055
    42   2      23.890000000000001                      20                      20
    43   1      23.890000000000001                  21.945                  21.945
