/home/bill-peng/Projects/BNPs/BNP/RAL/PdAu20SP75RAL5.lmp (written by ASE) 

321 	 atoms 
2  atom types
0.0                      40  xlo xhi
0.0                      40  ylo yhi
0.0                      40  zlo zhi


Atoms 

     1   2                  10.275                  18.055                      20
     2   1                  10.275                      20                  18.055
     3   2                  10.275                      20                  21.945
     4   1                  10.275                  21.945                      20
     5   1      12.220000000000001      14.164999999999999                  18.055
     6   1      14.164999999999999      12.220000000000001                  18.055
     7   1      14.164999999999999      14.164999999999999      16.109999999999999
     8   1      12.220000000000001      14.164999999999999                  21.945
     9   1      14.164999999999999      12.220000000000001                  21.945
    10   2      14.164999999999999      14.164999999999999                      20
    11   2      14.164999999999999      14.164999999999999      23.890000000000001
    12   1      12.220000000000001                  18.055      14.164999999999999
    13   1      14.164999999999999      16.109999999999999      14.164999999999999
    14   2      14.164999999999999                  18.055      12.220000000000001
    15   1      12.220000000000001      16.109999999999999      16.109999999999999
    16   1      12.220000000000001                  18.055                  18.055
    17   1      14.164999999999999      16.109999999999999                  18.055
    18   1      14.164999999999999                  18.055      16.109999999999999
    19   1      12.220000000000001      16.109999999999999                      20
    20   1      12.220000000000001                  18.055                  21.945
    21   1      14.164999999999999      16.109999999999999                  21.945
    22   1      14.164999999999999                  18.055                      20
    23   1      12.220000000000001      16.109999999999999      23.890000000000001
    24   1      12.220000000000001                  18.055      25.835000000000001
    25   1      14.164999999999999      16.109999999999999      25.835000000000001
    26   2      14.164999999999999                  18.055      23.890000000000001
    27   2      14.164999999999999                  18.055      27.780000000000001
    28   1      12.220000000000001                  21.945      14.164999999999999
    29   1      14.164999999999999                      20      14.164999999999999
    30   2      14.164999999999999                  21.945      12.220000000000001
    31   2      12.220000000000001                      20      16.109999999999999
    32   2      12.220000000000001                  21.945                  18.055
    33   1      14.164999999999999                      20                  18.055
    34   1      14.164999999999999                  21.945      16.109999999999999
    35   1      12.220000000000001                      20                      20
    36   1      12.220000000000001                  21.945                  21.945
    37   2      14.164999999999999                      20                  21.945
    38   1      14.164999999999999                  21.945                      20
    39   1      12.220000000000001                      20      23.890000000000001
    40   1      12.220000000000001                  21.945      25.835000000000001
    41   1      14.164999999999999                      20      25.835000000000001
    42   1      14.164999999999999                  21.945      23.890000000000001
    43   1      14.164999999999999                  21.945      27.780000000000001
    44   1      14.164999999999999      23.890000000000001      14.164999999999999
    45   2      12.220000000000001      23.890000000000001      16.109999999999999
    46   1      12.220000000000001      25.835000000000001                  18.055
    47   1      14.164999999999999      23.890000000000001                  18.055
    48   1      14.164999999999999      25.835000000000001      16.109999999999999
    49   1      12.220000000000001      23.890000000000001                      20
    50   1      12.220000000000001      25.835000000000001                  21.945
    51   1      14.164999999999999      23.890000000000001                  21.945
    52   1      14.164999999999999      25.835000000000001                      20
    53   2      12.220000000000001      23.890000000000001      23.890000000000001
    54   2      14.164999999999999      23.890000000000001      25.835000000000001
    55   2      14.164999999999999      25.835000000000001      23.890000000000001
    56   1      14.164999999999999      27.780000000000001                  18.055
    57   1      14.164999999999999      27.780000000000001                  21.945
    58   1                  18.055                  10.275                      20
    59   1      16.109999999999999      14.164999999999999      14.164999999999999
    60   1                  18.055      12.220000000000001      14.164999999999999
    61   1                  18.055      14.164999999999999      12.220000000000001
    62   1      16.109999999999999      12.220000000000001      16.109999999999999
    63   1      16.109999999999999      14.164999999999999                  18.055
    64   1                  18.055      12.220000000000001                  18.055
    65   1                  18.055      14.164999999999999      16.109999999999999
    66   2      16.109999999999999      12.220000000000001                      20
    67   1      16.109999999999999      14.164999999999999                  21.945
    68   2                  18.055      12.220000000000001                  21.945
    69   1                  18.055      14.164999999999999                      20
    70   1      16.109999999999999      12.220000000000001      23.890000000000001
    71   2      16.109999999999999      14.164999999999999      25.835000000000001
    72   2                  18.055      12.220000000000001      25.835000000000001
    73   1                  18.055      14.164999999999999      23.890000000000001
    74   2                  18.055      14.164999999999999      27.780000000000001
    75   1      16.109999999999999      16.109999999999999      12.220000000000001
    76   1      16.109999999999999                  18.055      14.164999999999999
    77   1                  18.055      16.109999999999999      14.164999999999999
    78   1                  18.055                  18.055      12.220000000000001
    79   1      16.109999999999999      16.109999999999999      16.109999999999999
    80   1      16.109999999999999                  18.055                  18.055
    81   1                  18.055      16.109999999999999                  18.055
    82   2                  18.055                  18.055      16.109999999999999
    83   1      16.109999999999999      16.109999999999999                      20
    84   1      16.109999999999999                  18.055                  21.945
    85   2                  18.055      16.109999999999999                  21.945
    86   1                  18.055                  18.055                      20
    87   1      16.109999999999999      16.109999999999999      23.890000000000001
    88   1      16.109999999999999                  18.055      25.835000000000001
    89   1                  18.055      16.109999999999999      25.835000000000001
    90   2                  18.055                  18.055      23.890000000000001
    91   1      16.109999999999999      16.109999999999999      27.780000000000001
    92   1                  18.055                  18.055      27.780000000000001
    93   1                  18.055                      20                  10.275
    94   1      16.109999999999999                      20      12.220000000000001
    95   1      16.109999999999999                  21.945      14.164999999999999
    96   1                  18.055                      20      14.164999999999999
    97   1                  18.055                  21.945      12.220000000000001
    98   2      16.109999999999999                      20      16.109999999999999
    99   1      16.109999999999999                  21.945                  18.055
   100   1                  18.055                      20                  18.055
   101   1                  18.055                  21.945      16.109999999999999
   102   1      16.109999999999999                      20                      20
   103   2      16.109999999999999                  21.945                  21.945
   104   2                  18.055                      20                  21.945
   105   1                  18.055                  21.945                      20
   106   1      16.109999999999999                      20      23.890000000000001
   107   1      16.109999999999999                  21.945      25.835000000000001
   108   1                  18.055                      20      25.835000000000001
   109   1                  18.055                  21.945      23.890000000000001
   110   1      16.109999999999999                      20      27.780000000000001
   111   1                  18.055                      20      29.725000000000001
   112   1                  18.055                  21.945      27.780000000000001
   113   1      16.109999999999999      23.890000000000001      12.220000000000001
   114   2      16.109999999999999      25.835000000000001      14.164999999999999
   115   1                  18.055      23.890000000000001      14.164999999999999
   116   1                  18.055      25.835000000000001      12.220000000000001
   117   1      16.109999999999999      23.890000000000001      16.109999999999999
   118   1      16.109999999999999      25.835000000000001                  18.055
   119   1                  18.055      23.890000000000001                  18.055
   120   1                  18.055      25.835000000000001      16.109999999999999
   121   1      16.109999999999999      23.890000000000001                      20
   122   1      16.109999999999999      25.835000000000001                  21.945
   123   1                  18.055      23.890000000000001                  21.945
   124   1                  18.055      25.835000000000001                      20
   125   1      16.109999999999999      23.890000000000001      23.890000000000001
   126   2      16.109999999999999      25.835000000000001      25.835000000000001
   127   2                  18.055      23.890000000000001      25.835000000000001
   128   2                  18.055      25.835000000000001      23.890000000000001
   129   1      16.109999999999999      23.890000000000001      27.780000000000001
   130   1                  18.055      25.835000000000001      27.780000000000001
   131   2                  18.055      27.780000000000001      14.164999999999999
   132   1      16.109999999999999      27.780000000000001      16.109999999999999
   133   1                  18.055      27.780000000000001                  18.055
   134   1      16.109999999999999      27.780000000000001                      20
   135   2                  18.055      27.780000000000001                  21.945
   136   2                  18.055      29.725000000000001                      20
   137   2      16.109999999999999      27.780000000000001      23.890000000000001
   138   1                  18.055      27.780000000000001      25.835000000000001
   139   2                      20                  10.275                  18.055
   140   2                      20                  10.275                  21.945
   141   1                  21.945                  10.275                      20
   142   1                      20      14.164999999999999      14.164999999999999
   143   1                  21.945      12.220000000000001      14.164999999999999
   144   1                  21.945      14.164999999999999      12.220000000000001
   145   2                      20      12.220000000000001      16.109999999999999
   146   1                      20      14.164999999999999                  18.055
   147   1                  21.945      12.220000000000001                  18.055
   148   1                  21.945      14.164999999999999      16.109999999999999
   149   1                      20      12.220000000000001                      20
   150   1                      20      14.164999999999999                  21.945
   151   1                  21.945      12.220000000000001                  21.945
   152   2                  21.945      14.164999999999999                      20
   153   1                      20      12.220000000000001      23.890000000000001
   154   1                      20      14.164999999999999      25.835000000000001
   155   1                  21.945      12.220000000000001      25.835000000000001
   156   2                  21.945      14.164999999999999      23.890000000000001
   157   2                  21.945      14.164999999999999      27.780000000000001
   158   1                      20                  18.055                  10.275
   159   1                      20      16.109999999999999      12.220000000000001
   160   1                      20                  18.055      14.164999999999999
   161   1                  21.945      16.109999999999999      14.164999999999999
   162   1                  21.945                  18.055      12.220000000000001
   163   1                      20      16.109999999999999      16.109999999999999
   164   1                      20                  18.055                  18.055
   165   1                  21.945      16.109999999999999                  18.055
   166   1                  21.945                  18.055      16.109999999999999
   167   1                      20      16.109999999999999                      20
   168   2                      20                  18.055                  21.945
   169   1                  21.945      16.109999999999999                  21.945
   170   1                  21.945                  18.055                      20
   171   1                      20      16.109999999999999      23.890000000000001
   172   1                      20                  18.055      25.835000000000001
   173   2                  21.945      16.109999999999999      25.835000000000001
   174   1                  21.945                  18.055      23.890000000000001
   175   1                      20      16.109999999999999      27.780000000000001
   176   1                      20                  18.055      29.725000000000001
   177   1                  21.945                  18.055      27.780000000000001
   178   1                      20                  21.945                  10.275
   179   1                  21.945                      20                  10.275
   180   1                      20                      20      12.220000000000001
   181   2                      20                  21.945      14.164999999999999
   182   1                  21.945                      20      14.164999999999999
   183   1                  21.945                  21.945      12.220000000000001
   184   1                      20                      20      16.109999999999999
   185   1                      20                  21.945                  18.055
   186   1                  21.945                      20                  18.055
   187   1                  21.945                  21.945      16.109999999999999
   188   1                      20                      20                      20
   189   1                      20                  21.945                  21.945
   190   1                  21.945                      20                  21.945
   191   1                  21.945                  21.945                      20
   192   1                      20                      20      23.890000000000001
   193   1                      20                  21.945      25.835000000000001
   194   1                  21.945                      20      25.835000000000001
   195   1                  21.945                  21.945      23.890000000000001
   196   1                      20                      20      27.780000000000001
   197   1                      20                  21.945      29.725000000000001
   198   1                  21.945                      20      29.725000000000001
   199   2                  21.945                  21.945      27.780000000000001
   200   2                      20      23.890000000000001      12.220000000000001
   201   1                      20      25.835000000000001      14.164999999999999
   202   2                  21.945      23.890000000000001      14.164999999999999
   203   2                  21.945      25.835000000000001      12.220000000000001
   204   2                      20      23.890000000000001      16.109999999999999
   205   1                      20      25.835000000000001                  18.055
   206   1                  21.945      23.890000000000001                  18.055
   207   1                  21.945      25.835000000000001      16.109999999999999
   208   1                      20      23.890000000000001                      20
   209   1                      20      25.835000000000001                  21.945
   210   2                  21.945      23.890000000000001                  21.945
   211   1                  21.945      25.835000000000001                      20
   212   1                      20      23.890000000000001      23.890000000000001
   213   1                      20      25.835000000000001      25.835000000000001
   214   1                  21.945      23.890000000000001      25.835000000000001
   215   1                  21.945      25.835000000000001      23.890000000000001
   216   2                      20      23.890000000000001      27.780000000000001
   217   1                  21.945      25.835000000000001      27.780000000000001
   218   1                  21.945      27.780000000000001      14.164999999999999
   219   1                      20      27.780000000000001      16.109999999999999
   220   2                      20      29.725000000000001                  18.055
   221   2                  21.945      27.780000000000001                  18.055
   222   1                      20      27.780000000000001                      20
   223   1                      20      29.725000000000001                  21.945
   224   1                  21.945      27.780000000000001                  21.945
   225   1                  21.945      29.725000000000001                      20
   226   2                      20      27.780000000000001      23.890000000000001
   227   1                  21.945      27.780000000000001      25.835000000000001
   228   2      23.890000000000001      14.164999999999999      14.164999999999999
   229   2      23.890000000000001      12.220000000000001      16.109999999999999
   230   1      23.890000000000001      14.164999999999999                  18.055
   231   2      25.835000000000001      12.220000000000001                  18.055
   232   1      25.835000000000001      14.164999999999999      16.109999999999999
   233   2      23.890000000000001      12.220000000000001                      20
   234   1      23.890000000000001      14.164999999999999                  21.945
   235   1      25.835000000000001      12.220000000000001                  21.945
   236   1      25.835000000000001      14.164999999999999                      20
   237   1      23.890000000000001      12.220000000000001      23.890000000000001
   238   1      23.890000000000001      14.164999999999999      25.835000000000001
   239   1      25.835000000000001      14.164999999999999      23.890000000000001
   240   1      23.890000000000001      16.109999999999999      12.220000000000001
   241   1      23.890000000000001                  18.055      14.164999999999999
   242   1      25.835000000000001      16.109999999999999      14.164999999999999
   243   1      25.835000000000001                  18.055      12.220000000000001
   244   1      23.890000000000001      16.109999999999999      16.109999999999999
   245   2      23.890000000000001                  18.055                  18.055
   246   2      25.835000000000001      16.109999999999999                  18.055
   247   1      25.835000000000001                  18.055      16.109999999999999
   248   2      23.890000000000001      16.109999999999999                      20
   249   2      23.890000000000001                  18.055                  21.945
   250   1      25.835000000000001      16.109999999999999                  21.945
   251   1      25.835000000000001                  18.055                      20
   252   2      23.890000000000001      16.109999999999999      23.890000000000001
   253   1      23.890000000000001                  18.055      25.835000000000001
   254   1      25.835000000000001      16.109999999999999      25.835000000000001
   255   1      25.835000000000001                  18.055      23.890000000000001
   256   1      23.890000000000001      16.109999999999999      27.780000000000001
   257   1      25.835000000000001                  18.055      27.780000000000001
   258   1      23.890000000000001                      20      12.220000000000001
   259   2      23.890000000000001                  21.945      14.164999999999999
   260   1      25.835000000000001                      20      14.164999999999999
   261   1      25.835000000000001                  21.945      12.220000000000001
   262   1      23.890000000000001                      20      16.109999999999999
   263   2      23.890000000000001                  21.945                  18.055
   264   1      25.835000000000001                      20                  18.055
   265   1      25.835000000000001                  21.945      16.109999999999999
   266   1      23.890000000000001                      20                      20
   267   1      23.890000000000001                  21.945                  21.945
   268   1      25.835000000000001                      20                  21.945
   269   1      25.835000000000001                  21.945                      20
   270   1      23.890000000000001                      20      23.890000000000001
   271   1      23.890000000000001                  21.945      25.835000000000001
   272   1      25.835000000000001                      20      25.835000000000001
   273   1      25.835000000000001                  21.945      23.890000000000001
   274   1      23.890000000000001                      20      27.780000000000001
   275   1      25.835000000000001                  21.945      27.780000000000001
   276   1      23.890000000000001      23.890000000000001      12.220000000000001
   277   1      23.890000000000001      25.835000000000001      14.164999999999999
   278   2      25.835000000000001      23.890000000000001      14.164999999999999
   279   2      23.890000000000001      23.890000000000001      16.109999999999999
   280   2      23.890000000000001      25.835000000000001                  18.055
   281   1      25.835000000000001      23.890000000000001                  18.055
   282   1      25.835000000000001      25.835000000000001      16.109999999999999
   283   2      23.890000000000001      23.890000000000001                      20
   284   1      23.890000000000001      25.835000000000001                  21.945
   285   2      25.835000000000001      23.890000000000001                  21.945
   286   1      25.835000000000001      25.835000000000001                      20
   287   1      23.890000000000001      23.890000000000001      23.890000000000001
   288   1      23.890000000000001      25.835000000000001      25.835000000000001
   289   1      25.835000000000001      23.890000000000001      25.835000000000001
   290   2      25.835000000000001      25.835000000000001      23.890000000000001
   291   1      23.890000000000001      23.890000000000001      27.780000000000001
   292   2      23.890000000000001      27.780000000000001      16.109999999999999
   293   2      25.835000000000001      27.780000000000001                  18.055
   294   1      23.890000000000001      27.780000000000001                      20
   295   1      25.835000000000001      27.780000000000001                  21.945
   296   1      23.890000000000001      27.780000000000001      23.890000000000001
   297   2      27.780000000000001      14.164999999999999                  18.055
   298   1      27.780000000000001      14.164999999999999                  21.945
   299   1      27.780000000000001                  18.055      14.164999999999999
   300   1      27.780000000000001      16.109999999999999      16.109999999999999
   301   1      27.780000000000001                  18.055                  18.055
   302   1      27.780000000000001      16.109999999999999                      20
   303   2      27.780000000000001                  18.055                  21.945
   304   1      29.725000000000001                  18.055                      20
   305   1      27.780000000000001      16.109999999999999      23.890000000000001
   306   1      27.780000000000001                  18.055      25.835000000000001
   307   1      27.780000000000001                  21.945      14.164999999999999
   308   1      27.780000000000001                      20      16.109999999999999
   309   2      27.780000000000001                  21.945                  18.055
   310   2      29.725000000000001                      20                  18.055
   311   1      27.780000000000001                      20                      20
   312   1      27.780000000000001                  21.945                  21.945
   313   2      29.725000000000001                      20                  21.945
   314   1      29.725000000000001                  21.945                      20
   315   1      27.780000000000001                      20      23.890000000000001
   316   2      27.780000000000001                  21.945      25.835000000000001
   317   2      27.780000000000001      23.890000000000001      16.109999999999999
   318   1      27.780000000000001      25.835000000000001                  18.055
   319   2      27.780000000000001      23.890000000000001                      20
   320   1      27.780000000000001      25.835000000000001                  21.945
   321   1      27.780000000000001      23.890000000000001      23.890000000000001
