/home/bill-peng/Projects/BNPs/BNP/RAL/PdPt20SP50RAL2.lmp (written by ASE) 

321 	 atoms 
2  atom types
0.0                      40  xlo xhi
0.0                      40  ylo yhi
0.0                      40  zlo zhi


Atoms 

     1   1                  10.275                  18.055                      20
     2   1                  10.275                      20                  18.055
     3   2                  10.275                      20                  21.945
     4   1                  10.275                  21.945                      20
     5   1      12.220000000000001      14.164999999999999                  18.055
     6   1      14.164999999999999      12.220000000000001                  18.055
     7   1      14.164999999999999      14.164999999999999      16.109999999999999
     8   2      12.220000000000001      14.164999999999999                  21.945
     9   1      14.164999999999999      12.220000000000001                  21.945
    10   1      14.164999999999999      14.164999999999999                      20
    11   2      14.164999999999999      14.164999999999999      23.890000000000001
    12   2      12.220000000000001                  18.055      14.164999999999999
    13   1      14.164999999999999      16.109999999999999      14.164999999999999
    14   2      14.164999999999999                  18.055      12.220000000000001
    15   1      12.220000000000001      16.109999999999999      16.109999999999999
    16   2      12.220000000000001                  18.055                  18.055
    17   2      14.164999999999999      16.109999999999999                  18.055
    18   1      14.164999999999999                  18.055      16.109999999999999
    19   2      12.220000000000001      16.109999999999999                      20
    20   1      12.220000000000001                  18.055                  21.945
    21   2      14.164999999999999      16.109999999999999                  21.945
    22   1      14.164999999999999                  18.055                      20
    23   1      12.220000000000001      16.109999999999999      23.890000000000001
    24   1      12.220000000000001                  18.055      25.835000000000001
    25   1      14.164999999999999      16.109999999999999      25.835000000000001
    26   2      14.164999999999999                  18.055      23.890000000000001
    27   1      14.164999999999999                  18.055      27.780000000000001
    28   1      12.220000000000001                  21.945      14.164999999999999
    29   1      14.164999999999999                      20      14.164999999999999
    30   1      14.164999999999999                  21.945      12.220000000000001
    31   1      12.220000000000001                      20      16.109999999999999
    32   1      12.220000000000001                  21.945                  18.055
    33   2      14.164999999999999                      20                  18.055
    34   1      14.164999999999999                  21.945      16.109999999999999
    35   2      12.220000000000001                      20                      20
    36   2      12.220000000000001                  21.945                  21.945
    37   2      14.164999999999999                      20                  21.945
    38   2      14.164999999999999                  21.945                      20
    39   1      12.220000000000001                      20      23.890000000000001
    40   2      12.220000000000001                  21.945      25.835000000000001
    41   2      14.164999999999999                      20      25.835000000000001
    42   2      14.164999999999999                  21.945      23.890000000000001
    43   2      14.164999999999999                  21.945      27.780000000000001
    44   1      14.164999999999999      23.890000000000001      14.164999999999999
    45   2      12.220000000000001      23.890000000000001      16.109999999999999
    46   1      12.220000000000001      25.835000000000001                  18.055
    47   1      14.164999999999999      23.890000000000001                  18.055
    48   2      14.164999999999999      25.835000000000001      16.109999999999999
    49   2      12.220000000000001      23.890000000000001                      20
    50   2      12.220000000000001      25.835000000000001                  21.945
    51   2      14.164999999999999      23.890000000000001                  21.945
    52   1      14.164999999999999      25.835000000000001                      20
    53   1      12.220000000000001      23.890000000000001      23.890000000000001
    54   2      14.164999999999999      23.890000000000001      25.835000000000001
    55   1      14.164999999999999      25.835000000000001      23.890000000000001
    56   1      14.164999999999999      27.780000000000001                  18.055
    57   1      14.164999999999999      27.780000000000001                  21.945
    58   1                  18.055                  10.275                      20
    59   2      16.109999999999999      14.164999999999999      14.164999999999999
    60   2                  18.055      12.220000000000001      14.164999999999999
    61   2                  18.055      14.164999999999999      12.220000000000001
    62   2      16.109999999999999      12.220000000000001      16.109999999999999
    63   2      16.109999999999999      14.164999999999999                  18.055
    64   1                  18.055      12.220000000000001                  18.055
    65   1                  18.055      14.164999999999999      16.109999999999999
    66   2      16.109999999999999      12.220000000000001                      20
    67   1      16.109999999999999      14.164999999999999                  21.945
    68   1                  18.055      12.220000000000001                  21.945
    69   2                  18.055      14.164999999999999                      20
    70   1      16.109999999999999      12.220000000000001      23.890000000000001
    71   2      16.109999999999999      14.164999999999999      25.835000000000001
    72   1                  18.055      12.220000000000001      25.835000000000001
    73   1                  18.055      14.164999999999999      23.890000000000001
    74   1                  18.055      14.164999999999999      27.780000000000001
    75   2      16.109999999999999      16.109999999999999      12.220000000000001
    76   2      16.109999999999999                  18.055      14.164999999999999
    77   2                  18.055      16.109999999999999      14.164999999999999
    78   1                  18.055                  18.055      12.220000000000001
    79   2      16.109999999999999      16.109999999999999      16.109999999999999
    80   2      16.109999999999999                  18.055                  18.055
    81   2                  18.055      16.109999999999999                  18.055
    82   1                  18.055                  18.055      16.109999999999999
    83   2      16.109999999999999      16.109999999999999                      20
    84   1      16.109999999999999                  18.055                  21.945
    85   1                  18.055      16.109999999999999                  21.945
    86   1                  18.055                  18.055                      20
    87   1      16.109999999999999      16.109999999999999      23.890000000000001
    88   2      16.109999999999999                  18.055      25.835000000000001
    89   2                  18.055      16.109999999999999      25.835000000000001
    90   1                  18.055                  18.055      23.890000000000001
    91   1      16.109999999999999      16.109999999999999      27.780000000000001
    92   1                  18.055                  18.055      27.780000000000001
    93   2                  18.055                      20                  10.275
    94   2      16.109999999999999                      20      12.220000000000001
    95   1      16.109999999999999                  21.945      14.164999999999999
    96   1                  18.055                      20      14.164999999999999
    97   2                  18.055                  21.945      12.220000000000001
    98   2      16.109999999999999                      20      16.109999999999999
    99   1      16.109999999999999                  21.945                  18.055
   100   2                  18.055                      20                  18.055
   101   2                  18.055                  21.945      16.109999999999999
   102   1      16.109999999999999                      20                      20
   103   2      16.109999999999999                  21.945                  21.945
   104   2                  18.055                      20                  21.945
   105   2                  18.055                  21.945                      20
   106   2      16.109999999999999                      20      23.890000000000001
   107   1      16.109999999999999                  21.945      25.835000000000001
   108   2                  18.055                      20      25.835000000000001
   109   2                  18.055                  21.945      23.890000000000001
   110   1      16.109999999999999                      20      27.780000000000001
   111   1                  18.055                      20      29.725000000000001
   112   2                  18.055                  21.945      27.780000000000001
   113   1      16.109999999999999      23.890000000000001      12.220000000000001
   114   2      16.109999999999999      25.835000000000001      14.164999999999999
   115   2                  18.055      23.890000000000001      14.164999999999999
   116   2                  18.055      25.835000000000001      12.220000000000001
   117   2      16.109999999999999      23.890000000000001      16.109999999999999
   118   1      16.109999999999999      25.835000000000001                  18.055
   119   2                  18.055      23.890000000000001                  18.055
   120   1                  18.055      25.835000000000001      16.109999999999999
   121   2      16.109999999999999      23.890000000000001                      20
   122   2      16.109999999999999      25.835000000000001                  21.945
   123   1                  18.055      23.890000000000001                  21.945
   124   1                  18.055      25.835000000000001                      20
   125   1      16.109999999999999      23.890000000000001      23.890000000000001
   126   1      16.109999999999999      25.835000000000001      25.835000000000001
   127   1                  18.055      23.890000000000001      25.835000000000001
   128   2                  18.055      25.835000000000001      23.890000000000001
   129   1      16.109999999999999      23.890000000000001      27.780000000000001
   130   1                  18.055      25.835000000000001      27.780000000000001
   131   1                  18.055      27.780000000000001      14.164999999999999
   132   1      16.109999999999999      27.780000000000001      16.109999999999999
   133   1                  18.055      27.780000000000001                  18.055
   134   1      16.109999999999999      27.780000000000001                      20
   135   1                  18.055      27.780000000000001                  21.945
   136   2                  18.055      29.725000000000001                      20
   137   2      16.109999999999999      27.780000000000001      23.890000000000001
   138   2                  18.055      27.780000000000001      25.835000000000001
   139   1                      20                  10.275                  18.055
   140   1                      20                  10.275                  21.945
   141   2                  21.945                  10.275                      20
   142   1                      20      14.164999999999999      14.164999999999999
   143   2                  21.945      12.220000000000001      14.164999999999999
   144   1                  21.945      14.164999999999999      12.220000000000001
   145   2                      20      12.220000000000001      16.109999999999999
   146   2                      20      14.164999999999999                  18.055
   147   2                  21.945      12.220000000000001                  18.055
   148   1                  21.945      14.164999999999999      16.109999999999999
   149   1                      20      12.220000000000001                      20
   150   2                      20      14.164999999999999                  21.945
   151   1                  21.945      12.220000000000001                  21.945
   152   1                  21.945      14.164999999999999                      20
   153   1                      20      12.220000000000001      23.890000000000001
   154   2                      20      14.164999999999999      25.835000000000001
   155   1                  21.945      12.220000000000001      25.835000000000001
   156   1                  21.945      14.164999999999999      23.890000000000001
   157   1                  21.945      14.164999999999999      27.780000000000001
   158   1                      20                  18.055                  10.275
   159   2                      20      16.109999999999999      12.220000000000001
   160   1                      20                  18.055      14.164999999999999
   161   2                  21.945      16.109999999999999      14.164999999999999
   162   1                  21.945                  18.055      12.220000000000001
   163   2                      20      16.109999999999999      16.109999999999999
   164   1                      20                  18.055                  18.055
   165   2                  21.945      16.109999999999999                  18.055
   166   2                  21.945                  18.055      16.109999999999999
   167   1                      20      16.109999999999999                      20
   168   1                      20                  18.055                  21.945
   169   1                  21.945      16.109999999999999                  21.945
   170   1                  21.945                  18.055                      20
   171   2                      20      16.109999999999999      23.890000000000001
   172   2                      20                  18.055      25.835000000000001
   173   1                  21.945      16.109999999999999      25.835000000000001
   174   1                  21.945                  18.055      23.890000000000001
   175   1                      20      16.109999999999999      27.780000000000001
   176   2                      20                  18.055      29.725000000000001
   177   2                  21.945                  18.055      27.780000000000001
   178   2                      20                  21.945                  10.275
   179   2                  21.945                      20                  10.275
   180   2                      20                      20      12.220000000000001
   181   1                      20                  21.945      14.164999999999999
   182   1                  21.945                      20      14.164999999999999
   183   2                  21.945                  21.945      12.220000000000001
   184   2                      20                      20      16.109999999999999
   185   1                      20                  21.945                  18.055
   186   2                  21.945                      20                  18.055
   187   1                  21.945                  21.945      16.109999999999999
   188   2                      20                      20                      20
   189   1                      20                  21.945                  21.945
   190   1                  21.945                      20                  21.945
   191   2                  21.945                  21.945                      20
   192   1                      20                      20      23.890000000000001
   193   2                      20                  21.945      25.835000000000001
   194   1                  21.945                      20      25.835000000000001
   195   1                  21.945                  21.945      23.890000000000001
   196   1                      20                      20      27.780000000000001
   197   2                      20                  21.945      29.725000000000001
   198   2                  21.945                      20      29.725000000000001
   199   2                  21.945                  21.945      27.780000000000001
   200   2                      20      23.890000000000001      12.220000000000001
   201   2                      20      25.835000000000001      14.164999999999999
   202   2                  21.945      23.890000000000001      14.164999999999999
   203   1                  21.945      25.835000000000001      12.220000000000001
   204   1                      20      23.890000000000001      16.109999999999999
   205   1                      20      25.835000000000001                  18.055
   206   2                  21.945      23.890000000000001                  18.055
   207   2                  21.945      25.835000000000001      16.109999999999999
   208   2                      20      23.890000000000001                      20
   209   2                      20      25.835000000000001                  21.945
   210   2                  21.945      23.890000000000001                  21.945
   211   2                  21.945      25.835000000000001                      20
   212   2                      20      23.890000000000001      23.890000000000001
   213   1                      20      25.835000000000001      25.835000000000001
   214   1                  21.945      23.890000000000001      25.835000000000001
   215   1                  21.945      25.835000000000001      23.890000000000001
   216   2                      20      23.890000000000001      27.780000000000001
   217   2                  21.945      25.835000000000001      27.780000000000001
   218   1                  21.945      27.780000000000001      14.164999999999999
   219   2                      20      27.780000000000001      16.109999999999999
   220   2                      20      29.725000000000001                  18.055
   221   2                  21.945      27.780000000000001                  18.055
   222   1                      20      27.780000000000001                      20
   223   2                      20      29.725000000000001                  21.945
   224   2                  21.945      27.780000000000001                  21.945
   225   1                  21.945      29.725000000000001                      20
   226   1                      20      27.780000000000001      23.890000000000001
   227   1                  21.945      27.780000000000001      25.835000000000001
   228   1      23.890000000000001      14.164999999999999      14.164999999999999
   229   2      23.890000000000001      12.220000000000001      16.109999999999999
   230   2      23.890000000000001      14.164999999999999                  18.055
   231   2      25.835000000000001      12.220000000000001                  18.055
   232   2      25.835000000000001      14.164999999999999      16.109999999999999
   233   1      23.890000000000001      12.220000000000001                      20
   234   1      23.890000000000001      14.164999999999999                  21.945
   235   2      25.835000000000001      12.220000000000001                  21.945
   236   1      25.835000000000001      14.164999999999999                      20
   237   2      23.890000000000001      12.220000000000001      23.890000000000001
   238   2      23.890000000000001      14.164999999999999      25.835000000000001
   239   1      25.835000000000001      14.164999999999999      23.890000000000001
   240   2      23.890000000000001      16.109999999999999      12.220000000000001
   241   1      23.890000000000001                  18.055      14.164999999999999
   242   1      25.835000000000001      16.109999999999999      14.164999999999999
   243   2      25.835000000000001                  18.055      12.220000000000001
   244   1      23.890000000000001      16.109999999999999      16.109999999999999
   245   1      23.890000000000001                  18.055                  18.055
   246   2      25.835000000000001      16.109999999999999                  18.055
   247   2      25.835000000000001                  18.055      16.109999999999999
   248   1      23.890000000000001      16.109999999999999                      20
   249   2      23.890000000000001                  18.055                  21.945
   250   2      25.835000000000001      16.109999999999999                  21.945
   251   1      25.835000000000001                  18.055                      20
   252   2      23.890000000000001      16.109999999999999      23.890000000000001
   253   1      23.890000000000001                  18.055      25.835000000000001
   254   1      25.835000000000001      16.109999999999999      25.835000000000001
   255   2      25.835000000000001                  18.055      23.890000000000001
   256   1      23.890000000000001      16.109999999999999      27.780000000000001
   257   1      25.835000000000001                  18.055      27.780000000000001
   258   1      23.890000000000001                      20      12.220000000000001
   259   1      23.890000000000001                  21.945      14.164999999999999
   260   1      25.835000000000001                      20      14.164999999999999
   261   2      25.835000000000001                  21.945      12.220000000000001
   262   1      23.890000000000001                      20      16.109999999999999
   263   2      23.890000000000001                  21.945                  18.055
   264   1      25.835000000000001                      20                  18.055
   265   1      25.835000000000001                  21.945      16.109999999999999
   266   2      23.890000000000001                      20                      20
   267   2      23.890000000000001                  21.945                  21.945
   268   2      25.835000000000001                      20                  21.945
   269   2      25.835000000000001                  21.945                      20
   270   1      23.890000000000001                      20      23.890000000000001
   271   1      23.890000000000001                  21.945      25.835000000000001
   272   2      25.835000000000001                      20      25.835000000000001
   273   1      25.835000000000001                  21.945      23.890000000000001
   274   2      23.890000000000001                      20      27.780000000000001
   275   2      25.835000000000001                  21.945      27.780000000000001
   276   2      23.890000000000001      23.890000000000001      12.220000000000001
   277   1      23.890000000000001      25.835000000000001      14.164999999999999
   278   2      25.835000000000001      23.890000000000001      14.164999999999999
   279   2      23.890000000000001      23.890000000000001      16.109999999999999
   280   2      23.890000000000001      25.835000000000001                  18.055
   281   2      25.835000000000001      23.890000000000001                  18.055
   282   2      25.835000000000001      25.835000000000001      16.109999999999999
   283   2      23.890000000000001      23.890000000000001                      20
   284   2      23.890000000000001      25.835000000000001                  21.945
   285   2      25.835000000000001      23.890000000000001                  21.945
   286   2      25.835000000000001      25.835000000000001                      20
   287   1      23.890000000000001      23.890000000000001      23.890000000000001
   288   2      23.890000000000001      25.835000000000001      25.835000000000001
   289   1      25.835000000000001      23.890000000000001      25.835000000000001
   290   1      25.835000000000001      25.835000000000001      23.890000000000001
   291   2      23.890000000000001      23.890000000000001      27.780000000000001
   292   2      23.890000000000001      27.780000000000001      16.109999999999999
   293   2      25.835000000000001      27.780000000000001                  18.055
   294   1      23.890000000000001      27.780000000000001                      20
   295   1      25.835000000000001      27.780000000000001                  21.945
   296   1      23.890000000000001      27.780000000000001      23.890000000000001
   297   1      27.780000000000001      14.164999999999999                  18.055
   298   1      27.780000000000001      14.164999999999999                  21.945
   299   1      27.780000000000001                  18.055      14.164999999999999
   300   2      27.780000000000001      16.109999999999999      16.109999999999999
   301   1      27.780000000000001                  18.055                  18.055
   302   1      27.780000000000001      16.109999999999999                      20
   303   1      27.780000000000001                  18.055                  21.945
   304   1      29.725000000000001                  18.055                      20
   305   2      27.780000000000001      16.109999999999999      23.890000000000001
   306   1      27.780000000000001                  18.055      25.835000000000001
   307   2      27.780000000000001                  21.945      14.164999999999999
   308   1      27.780000000000001                      20      16.109999999999999
   309   1      27.780000000000001                  21.945                  18.055
   310   2      29.725000000000001                      20                  18.055
   311   2      27.780000000000001                      20                      20
   312   1      27.780000000000001                  21.945                  21.945
   313   2      29.725000000000001                      20                  21.945
   314   2      29.725000000000001                  21.945                      20
   315   2      27.780000000000001                      20      23.890000000000001
   316   1      27.780000000000001                  21.945      25.835000000000001
   317   1      27.780000000000001      23.890000000000001      16.109999999999999
   318   2      27.780000000000001      25.835000000000001                  18.055
   319   2      27.780000000000001      23.890000000000001                      20
   320   2      27.780000000000001      25.835000000000001                  21.945
   321   1      27.780000000000001      23.890000000000001      23.890000000000001
