/home/bill-peng/Projects/BNPs/BNP/RAL/PdPt10SP75RAL3.lmp (written by ASE) 

43 	 atoms 
2  atom types
0.0                      40  xlo xhi
0.0                      40  ylo yhi
0.0                      40  zlo zhi


Atoms 

     1   2      16.109999999999999                  18.055                  18.055
     2   2                  18.055      16.109999999999999                  18.055
     3   2                  18.055                  18.055      16.109999999999999
     4   2      16.109999999999999                  18.055                  21.945
     5   1                  18.055      16.109999999999999                  21.945
     6   2                  18.055                  18.055                      20
     7   1                  18.055                  18.055      23.890000000000001
     8   1      16.109999999999999                  21.945                  18.055
     9   1                  18.055                      20                  18.055
    10   2                  18.055                  21.945      16.109999999999999
    11   1      16.109999999999999                      20                      20
    12   2      16.109999999999999                  21.945                  21.945
    13   2                  18.055                      20                  21.945
    14   2                  18.055                  21.945                      20
    15   2                  18.055                  21.945      23.890000000000001
    16   2                  18.055      23.890000000000001                  18.055
    17   1                  18.055      23.890000000000001                  21.945
    18   2                      20                  18.055                  18.055
    19   2                  21.945      16.109999999999999                  18.055
    20   2                  21.945                  18.055      16.109999999999999
    21   2                      20      16.109999999999999                      20
    22   2                      20                  18.055                  21.945
    23   2                  21.945      16.109999999999999                  21.945
    24   1                  21.945                  18.055                      20
    25   2                  21.945                  18.055      23.890000000000001
    26   2                      20                      20      16.109999999999999
    27   2                      20                  21.945                  18.055
    28   1                  21.945                      20                  18.055
    29   2                  21.945                  21.945      16.109999999999999
    30   2                      20                      20                      20
    31   2                      20                  21.945                  21.945
    32   2                  21.945                      20                  21.945
    33   2                  21.945                  21.945                      20
    34   2                      20                      20      23.890000000000001
    35   2                  21.945                  21.945      23.890000000000001
    36   1                  21.945      23.890000000000001                  18.055
    37   2                      20      23.890000000000001                      20
    38   2                  21.945      23.890000000000001                  21.945
    39   2      23.890000000000001                  18.055                  18.055
    40   1      23.890000000000001                  18.055                  21.945
    41   1      23.890000000000001                  21.945                  18.055
    42   2      23.890000000000001                      20                      20
    43   2      23.890000000000001                  21.945                  21.945
