/home/bill-peng/Projects/BNPs/BNP/RAL/PtAu10SP50RAL8.lmp (written by ASE) 

43 	 atoms 
2  atom types
0.0                      40  xlo xhi
0.0                      40  ylo yhi
0.0                      40  zlo zhi


Atoms 

     1   1      16.079999999999998      18.039999999999999      18.039999999999999
     2   1      18.039999999999999      16.079999999999998      18.039999999999999
     3   1      18.039999999999999      18.039999999999999      16.079999999999998
     4   1      16.079999999999998      18.039999999999999      21.960000000000001
     5   2      18.039999999999999      16.079999999999998      21.960000000000001
     6   2      18.039999999999999      18.039999999999999                      20
     7   2      18.039999999999999      18.039999999999999      23.920000000000002
     8   2      16.079999999999998      21.960000000000001      18.039999999999999
     9   1      18.039999999999999                      20      18.039999999999999
    10   2      18.039999999999999      21.960000000000001      16.079999999999998
    11   1      16.079999999999998                      20                      20
    12   1      16.079999999999998      21.960000000000001      21.960000000000001
    13   1      18.039999999999999                      20      21.960000000000001
    14   1      18.039999999999999      21.960000000000001                      20
    15   1      18.039999999999999      21.960000000000001      23.920000000000002
    16   2      18.039999999999999      23.920000000000002      18.039999999999999
    17   1      18.039999999999999      23.920000000000002      21.960000000000001
    18   1                      20      18.039999999999999      18.039999999999999
    19   1      21.960000000000001      16.079999999999998      18.039999999999999
    20   2      21.960000000000001      18.039999999999999      16.079999999999998
    21   2                      20      16.079999999999998                      20
    22   1                      20      18.039999999999999      21.960000000000001
    23   2      21.960000000000001      16.079999999999998      21.960000000000001
    24   2      21.960000000000001      18.039999999999999                      20
    25   2      21.960000000000001      18.039999999999999      23.920000000000002
    26   2                      20                      20      16.079999999999998
    27   2                      20      21.960000000000001      18.039999999999999
    28   1      21.960000000000001                      20      18.039999999999999
    29   2      21.960000000000001      21.960000000000001      16.079999999999998
    30   1                      20                      20                      20
    31   2                      20      21.960000000000001      21.960000000000001
    32   2      21.960000000000001                      20      21.960000000000001
    33   2      21.960000000000001      21.960000000000001                      20
    34   1                      20                      20      23.920000000000002
    35   1      21.960000000000001      21.960000000000001      23.920000000000002
    36   2      21.960000000000001      23.920000000000002      18.039999999999999
    37   2                      20      23.920000000000002                      20
    38   2      21.960000000000001      23.920000000000002      21.960000000000001
    39   1      23.920000000000002      18.039999999999999      18.039999999999999
    40   1      23.920000000000002      18.039999999999999      21.960000000000001
    41   2      23.920000000000002      21.960000000000001      18.039999999999999
    42   1      23.920000000000002                      20                      20
    43   1      23.920000000000002      21.960000000000001      21.960000000000001
