/home/bill-peng/Projects/BNPs/BNP/RAL/PtPd20SP50RAL0.lmp (written by ASE) 

321 	 atoms 
2  atom types
0.0                      40  xlo xhi
0.0                      40  ylo yhi
0.0                      40  zlo zhi


Atoms 

     1   1      10.199999999999999      18.039999999999999                      20
     2   1      10.199999999999999                      20      18.039999999999999
     3   1      10.199999999999999                      20      21.959999999999997
     4   1      10.199999999999999      21.959999999999997                      20
     5   2      12.159999999999998      14.119999999999997      18.039999999999999
     6   1      14.119999999999997      12.159999999999998      18.039999999999999
     7   2      14.119999999999997      14.119999999999997      16.079999999999998
     8   1      12.159999999999998      14.119999999999997      21.959999999999997
     9   1      14.119999999999997      12.159999999999998      21.959999999999997
    10   2      14.119999999999997      14.119999999999997                      20
    11   2      14.119999999999997      14.119999999999997      23.919999999999998
    12   1      12.159999999999998      18.039999999999999      14.119999999999997
    13   1      14.119999999999997      16.079999999999998      14.119999999999997
    14   1      14.119999999999997      18.039999999999999      12.159999999999998
    15   2      12.159999999999998      16.079999999999998      16.079999999999998
    16   2      12.159999999999998      18.039999999999999      18.039999999999999
    17   2      14.119999999999997      16.079999999999998      18.039999999999999
    18   1      14.119999999999997      18.039999999999999      16.079999999999998
    19   1      12.159999999999998      16.079999999999998                      20
    20   1      12.159999999999998      18.039999999999999      21.959999999999997
    21   1      14.119999999999997      16.079999999999998      21.959999999999997
    22   1      14.119999999999997      18.039999999999999                      20
    23   2      12.159999999999998      16.079999999999998      23.919999999999998
    24   1      12.159999999999998      18.039999999999999      25.879999999999999
    25   2      14.119999999999997      16.079999999999998      25.879999999999999
    26   1      14.119999999999997      18.039999999999999      23.919999999999998
    27   2      14.119999999999997      18.039999999999999                   27.84
    28   1      12.159999999999998      21.959999999999997      14.119999999999997
    29   1      14.119999999999997                      20      14.119999999999997
    30   2      14.119999999999997      21.959999999999997      12.159999999999998
    31   2      12.159999999999998                      20      16.079999999999998
    32   1      12.159999999999998      21.959999999999997      18.039999999999999
    33   2      14.119999999999997                      20      18.039999999999999
    34   1      14.119999999999997      21.959999999999997      16.079999999999998
    35   2      12.159999999999998                      20                      20
    36   1      12.159999999999998      21.959999999999997      21.959999999999997
    37   1      14.119999999999997                      20      21.959999999999997
    38   1      14.119999999999997      21.959999999999997                      20
    39   1      12.159999999999998                      20      23.919999999999998
    40   1      12.159999999999998      21.959999999999997      25.879999999999999
    41   2      14.119999999999997                      20      25.879999999999999
    42   2      14.119999999999997      21.959999999999997      23.919999999999998
    43   1      14.119999999999997      21.959999999999997                   27.84
    44   2      14.119999999999997      23.919999999999998      14.119999999999997
    45   1      12.159999999999998      23.919999999999998      16.079999999999998
    46   1      12.159999999999998      25.879999999999999      18.039999999999999
    47   2      14.119999999999997      23.919999999999998      18.039999999999999
    48   2      14.119999999999997      25.879999999999999      16.079999999999998
    49   2      12.159999999999998      23.919999999999998                      20
    50   2      12.159999999999998      25.879999999999999      21.959999999999997
    51   1      14.119999999999997      23.919999999999998      21.959999999999997
    52   2      14.119999999999997      25.879999999999999                      20
    53   1      12.159999999999998      23.919999999999998      23.919999999999998
    54   2      14.119999999999997      23.919999999999998      25.879999999999999
    55   2      14.119999999999997      25.879999999999999      23.919999999999998
    56   2      14.119999999999997                   27.84      18.039999999999999
    57   1      14.119999999999997                   27.84      21.959999999999997
    58   2      18.039999999999999      10.199999999999999                      20
    59   2      16.079999999999998      14.119999999999997      14.119999999999997
    60   2      18.039999999999999      12.159999999999998      14.119999999999997
    61   2      18.039999999999999      14.119999999999997      12.159999999999998
    62   2      16.079999999999998      12.159999999999998      16.079999999999998
    63   1      16.079999999999998      14.119999999999997      18.039999999999999
    64   2      18.039999999999999      12.159999999999998      18.039999999999999
    65   2      18.039999999999999      14.119999999999997      16.079999999999998
    66   2      16.079999999999998      12.159999999999998                      20
    67   1      16.079999999999998      14.119999999999997      21.959999999999997
    68   2      18.039999999999999      12.159999999999998      21.959999999999997
    69   1      18.039999999999999      14.119999999999997                      20
    70   2      16.079999999999998      12.159999999999998      23.919999999999998
    71   1      16.079999999999998      14.119999999999997      25.879999999999999
    72   2      18.039999999999999      12.159999999999998      25.879999999999999
    73   1      18.039999999999999      14.119999999999997      23.919999999999998
    74   1      18.039999999999999      14.119999999999997                   27.84
    75   1      16.079999999999998      16.079999999999998      12.159999999999998
    76   2      16.079999999999998      18.039999999999999      14.119999999999997
    77   2      18.039999999999999      16.079999999999998      14.119999999999997
    78   2      18.039999999999999      18.039999999999999      12.159999999999998
    79   2      16.079999999999998      16.079999999999998      16.079999999999998
    80   2      16.079999999999998      18.039999999999999      18.039999999999999
    81   2      18.039999999999999      16.079999999999998      18.039999999999999
    82   2      18.039999999999999      18.039999999999999      16.079999999999998
    83   2      16.079999999999998      16.079999999999998                      20
    84   1      16.079999999999998      18.039999999999999      21.959999999999997
    85   1      18.039999999999999      16.079999999999998      21.959999999999997
    86   2      18.039999999999999      18.039999999999999                      20
    87   1      16.079999999999998      16.079999999999998      23.919999999999998
    88   2      16.079999999999998      18.039999999999999      25.879999999999999
    89   1      18.039999999999999      16.079999999999998      25.879999999999999
    90   1      18.039999999999999      18.039999999999999      23.919999999999998
    91   2      16.079999999999998      16.079999999999998                   27.84
    92   1      18.039999999999999      18.039999999999999                   27.84
    93   2      18.039999999999999                      20      10.199999999999999
    94   1      16.079999999999998                      20      12.159999999999998
    95   2      16.079999999999998      21.959999999999997      14.119999999999997
    96   2      18.039999999999999                      20      14.119999999999997
    97   1      18.039999999999999      21.959999999999997      12.159999999999998
    98   2      16.079999999999998                      20      16.079999999999998
    99   1      16.079999999999998      21.959999999999997      18.039999999999999
   100   2      18.039999999999999                      20      18.039999999999999
   101   1      18.039999999999999      21.959999999999997      16.079999999999998
   102   2      16.079999999999998                      20                      20
   103   1      16.079999999999998      21.959999999999997      21.959999999999997
   104   1      18.039999999999999                      20      21.959999999999997
   105   2      18.039999999999999      21.959999999999997                      20
   106   1      16.079999999999998                      20      23.919999999999998
   107   1      16.079999999999998      21.959999999999997      25.879999999999999
   108   1      18.039999999999999                      20      25.879999999999999
   109   2      18.039999999999999      21.959999999999997      23.919999999999998
   110   1      16.079999999999998                      20                   27.84
   111   2      18.039999999999999                      20      29.800000000000001
   112   1      18.039999999999999      21.959999999999997                   27.84
   113   1      16.079999999999998      23.919999999999998      12.159999999999998
   114   2      16.079999999999998      25.879999999999999      14.119999999999997
   115   1      18.039999999999999      23.919999999999998      14.119999999999997
   116   2      18.039999999999999      25.879999999999999      12.159999999999998
   117   1      16.079999999999998      23.919999999999998      16.079999999999998
   118   1      16.079999999999998      25.879999999999999      18.039999999999999
   119   1      18.039999999999999      23.919999999999998      18.039999999999999
   120   1      18.039999999999999      25.879999999999999      16.079999999999998
   121   1      16.079999999999998      23.919999999999998                      20
   122   1      16.079999999999998      25.879999999999999      21.959999999999997
   123   1      18.039999999999999      23.919999999999998      21.959999999999997
   124   1      18.039999999999999      25.879999999999999                      20
   125   2      16.079999999999998      23.919999999999998      23.919999999999998
   126   1      16.079999999999998      25.879999999999999      25.879999999999999
   127   2      18.039999999999999      23.919999999999998      25.879999999999999
   128   2      18.039999999999999      25.879999999999999      23.919999999999998
   129   1      16.079999999999998      23.919999999999998                   27.84
   130   2      18.039999999999999      25.879999999999999                   27.84
   131   1      18.039999999999999                   27.84      14.119999999999997
   132   2      16.079999999999998                   27.84      16.079999999999998
   133   2      18.039999999999999                   27.84      18.039999999999999
   134   2      16.079999999999998                   27.84                      20
   135   1      18.039999999999999                   27.84      21.959999999999997
   136   1      18.039999999999999      29.800000000000001                      20
   137   1      16.079999999999998                   27.84      23.919999999999998
   138   1      18.039999999999999                   27.84      25.879999999999999
   139   1                      20      10.199999999999999      18.039999999999999
   140   2                      20      10.199999999999999      21.959999999999997
   141   1      21.959999999999997      10.199999999999999                      20
   142   2                      20      14.119999999999997      14.119999999999997
   143   2      21.959999999999997      12.159999999999998      14.119999999999997
   144   1      21.959999999999997      14.119999999999997      12.159999999999998
   145   1                      20      12.159999999999998      16.079999999999998
   146   1                      20      14.119999999999997      18.039999999999999
   147   2      21.959999999999997      12.159999999999998      18.039999999999999
   148   1      21.959999999999997      14.119999999999997      16.079999999999998
   149   1                      20      12.159999999999998                      20
   150   1                      20      14.119999999999997      21.959999999999997
   151   2      21.959999999999997      12.159999999999998      21.959999999999997
   152   1      21.959999999999997      14.119999999999997                      20
   153   2                      20      12.159999999999998      23.919999999999998
   154   1                      20      14.119999999999997      25.879999999999999
   155   2      21.959999999999997      12.159999999999998      25.879999999999999
   156   1      21.959999999999997      14.119999999999997      23.919999999999998
   157   1      21.959999999999997      14.119999999999997                   27.84
   158   1                      20      18.039999999999999      10.199999999999999
   159   2                      20      16.079999999999998      12.159999999999998
   160   2                      20      18.039999999999999      14.119999999999997
   161   1      21.959999999999997      16.079999999999998      14.119999999999997
   162   2      21.959999999999997      18.039999999999999      12.159999999999998
   163   1                      20      16.079999999999998      16.079999999999998
   164   2                      20      18.039999999999999      18.039999999999999
   165   1      21.959999999999997      16.079999999999998      18.039999999999999
   166   1      21.959999999999997      18.039999999999999      16.079999999999998
   167   2                      20      16.079999999999998                      20
   168   2                      20      18.039999999999999      21.959999999999997
   169   1      21.959999999999997      16.079999999999998      21.959999999999997
   170   2      21.959999999999997      18.039999999999999                      20
   171   1                      20      16.079999999999998      23.919999999999998
   172   2                      20      18.039999999999999      25.879999999999999
   173   2      21.959999999999997      16.079999999999998      25.879999999999999
   174   2      21.959999999999997      18.039999999999999      23.919999999999998
   175   1                      20      16.079999999999998                   27.84
   176   2                      20      18.039999999999999      29.800000000000001
   177   2      21.959999999999997      18.039999999999999                   27.84
   178   1                      20      21.959999999999997      10.199999999999999
   179   1      21.959999999999997                      20      10.199999999999999
   180   2                      20                      20      12.159999999999998
   181   2                      20      21.959999999999997      14.119999999999997
   182   1      21.959999999999997                      20      14.119999999999997
   183   1      21.959999999999997      21.959999999999997      12.159999999999998
   184   2                      20                      20      16.079999999999998
   185   1                      20      21.959999999999997      18.039999999999999
   186   1      21.959999999999997                      20      18.039999999999999
   187   1      21.959999999999997      21.959999999999997      16.079999999999998
   188   1                      20                      20                      20
   189   1                      20      21.959999999999997      21.959999999999997
   190   2      21.959999999999997                      20      21.959999999999997
   191   2      21.959999999999997      21.959999999999997                      20
   192   2                      20                      20      23.919999999999998
   193   2                      20      21.959999999999997      25.879999999999999
   194   1      21.959999999999997                      20      25.879999999999999
   195   1      21.959999999999997      21.959999999999997      23.919999999999998
   196   2                      20                      20                   27.84
   197   2                      20      21.959999999999997      29.800000000000001
   198   2      21.959999999999997                      20      29.800000000000001
   199   2      21.959999999999997      21.959999999999997                   27.84
   200   2                      20      23.919999999999998      12.159999999999998
   201   2                      20      25.879999999999999      14.119999999999997
   202   2      21.959999999999997      23.919999999999998      14.119999999999997
   203   2      21.959999999999997      25.879999999999999      12.159999999999998
   204   2                      20      23.919999999999998      16.079999999999998
   205   2                      20      25.879999999999999      18.039999999999999
   206   2      21.959999999999997      23.919999999999998      18.039999999999999
   207   1      21.959999999999997      25.879999999999999      16.079999999999998
   208   2                      20      23.919999999999998                      20
   209   1                      20      25.879999999999999      21.959999999999997
   210   1      21.959999999999997      23.919999999999998      21.959999999999997
   211   1      21.959999999999997      25.879999999999999                      20
   212   2                      20      23.919999999999998      23.919999999999998
   213   1                      20      25.879999999999999      25.879999999999999
   214   2      21.959999999999997      23.919999999999998      25.879999999999999
   215   2      21.959999999999997      25.879999999999999      23.919999999999998
   216   1                      20      23.919999999999998                   27.84
   217   2      21.959999999999997      25.879999999999999                   27.84
   218   2      21.959999999999997                   27.84      14.119999999999997
   219   1                      20                   27.84      16.079999999999998
   220   1                      20      29.800000000000001      18.039999999999999
   221   1      21.959999999999997                   27.84      18.039999999999999
   222   1                      20                   27.84                      20
   223   2                      20      29.800000000000001      21.959999999999997
   224   1      21.959999999999997                   27.84      21.959999999999997
   225   2      21.959999999999997      29.800000000000001                      20
   226   1                      20                   27.84      23.919999999999998
   227   1      21.959999999999997                   27.84      25.879999999999999
   228   2      23.919999999999998      14.119999999999997      14.119999999999997
   229   1      23.919999999999998      12.159999999999998      16.079999999999998
   230   1      23.919999999999998      14.119999999999997      18.039999999999999
   231   2      25.879999999999999      12.159999999999998      18.039999999999999
   232   2      25.879999999999999      14.119999999999997      16.079999999999998
   233   1      23.919999999999998      12.159999999999998                      20
   234   2      23.919999999999998      14.119999999999997      21.959999999999997
   235   2      25.879999999999999      12.159999999999998      21.959999999999997
   236   2      25.879999999999999      14.119999999999997                      20
   237   2      23.919999999999998      12.159999999999998      23.919999999999998
   238   2      23.919999999999998      14.119999999999997      25.879999999999999
   239   2      25.879999999999999      14.119999999999997      23.919999999999998
   240   1      23.919999999999998      16.079999999999998      12.159999999999998
   241   1      23.919999999999998      18.039999999999999      14.119999999999997
   242   2      25.879999999999999      16.079999999999998      14.119999999999997
   243   1      25.879999999999999      18.039999999999999      12.159999999999998
   244   2      23.919999999999998      16.079999999999998      16.079999999999998
   245   1      23.919999999999998      18.039999999999999      18.039999999999999
   246   2      25.879999999999999      16.079999999999998      18.039999999999999
   247   1      25.879999999999999      18.039999999999999      16.079999999999998
   248   2      23.919999999999998      16.079999999999998                      20
   249   2      23.919999999999998      18.039999999999999      21.959999999999997
   250   2      25.879999999999999      16.079999999999998      21.959999999999997
   251   2      25.879999999999999      18.039999999999999                      20
   252   1      23.919999999999998      16.079999999999998      23.919999999999998
   253   1      23.919999999999998      18.039999999999999      25.879999999999999
   254   1      25.879999999999999      16.079999999999998      25.879999999999999
   255   1      25.879999999999999      18.039999999999999      23.919999999999998
   256   2      23.919999999999998      16.079999999999998                   27.84
   257   1      25.879999999999999      18.039999999999999                   27.84
   258   1      23.919999999999998                      20      12.159999999999998
   259   1      23.919999999999998      21.959999999999997      14.119999999999997
   260   2      25.879999999999999                      20      14.119999999999997
   261   2      25.879999999999999      21.959999999999997      12.159999999999998
   262   2      23.919999999999998                      20      16.079999999999998
   263   2      23.919999999999998      21.959999999999997      18.039999999999999
   264   1      25.879999999999999                      20      18.039999999999999
   265   1      25.879999999999999      21.959999999999997      16.079999999999998
   266   1      23.919999999999998                      20                      20
   267   2      23.919999999999998      21.959999999999997      21.959999999999997
   268   1      25.879999999999999                      20      21.959999999999997
   269   2      25.879999999999999      21.959999999999997                      20
   270   2      23.919999999999998                      20      23.919999999999998
   271   1      23.919999999999998      21.959999999999997      25.879999999999999
   272   1      25.879999999999999                      20      25.879999999999999
   273   2      25.879999999999999      21.959999999999997      23.919999999999998
   274   1      23.919999999999998                      20                   27.84
   275   2      25.879999999999999      21.959999999999997                   27.84
   276   1      23.919999999999998      23.919999999999998      12.159999999999998
   277   1      23.919999999999998      25.879999999999999      14.119999999999997
   278   1      25.879999999999999      23.919999999999998      14.119999999999997
   279   1      23.919999999999998      23.919999999999998      16.079999999999998
   280   2      23.919999999999998      25.879999999999999      18.039999999999999
   281   2      25.879999999999999      23.919999999999998      18.039999999999999
   282   1      25.879999999999999      25.879999999999999      16.079999999999998
   283   1      23.919999999999998      23.919999999999998                      20
   284   2      23.919999999999998      25.879999999999999      21.959999999999997
   285   2      25.879999999999999      23.919999999999998      21.959999999999997
   286   2      25.879999999999999      25.879999999999999                      20
   287   1      23.919999999999998      23.919999999999998      23.919999999999998
   288   2      23.919999999999998      25.879999999999999      25.879999999999999
   289   2      25.879999999999999      23.919999999999998      25.879999999999999
   290   1      25.879999999999999      25.879999999999999      23.919999999999998
   291   2      23.919999999999998      23.919999999999998                   27.84
   292   2      23.919999999999998                   27.84      16.079999999999998
   293   1      25.879999999999999                   27.84      18.039999999999999
   294   2      23.919999999999998                   27.84                      20
   295   1      25.879999999999999                   27.84      21.959999999999997
   296   2      23.919999999999998                   27.84      23.919999999999998
   297   2                   27.84      14.119999999999997      18.039999999999999
   298   1                   27.84      14.119999999999997      21.959999999999997
   299   1                   27.84      18.039999999999999      14.119999999999997
   300   1                   27.84      16.079999999999998      16.079999999999998
   301   1                   27.84      18.039999999999999      18.039999999999999
   302   1                   27.84      16.079999999999998                      20
   303   2                   27.84      18.039999999999999      21.959999999999997
   304   2      29.800000000000001      18.039999999999999                      20
   305   2                   27.84      16.079999999999998      23.919999999999998
   306   2                   27.84      18.039999999999999      25.879999999999999
   307   2                   27.84      21.959999999999997      14.119999999999997
   308   2                   27.84                      20      16.079999999999998
   309   1                   27.84      21.959999999999997      18.039999999999999
   310   2      29.800000000000001                      20      18.039999999999999
   311   1                   27.84                      20                      20
   312   2                   27.84      21.959999999999997      21.959999999999997
   313   2      29.800000000000001                      20      21.959999999999997
   314   2      29.800000000000001      21.959999999999997                      20
   315   1                   27.84                      20      23.919999999999998
   316   2                   27.84      21.959999999999997      25.879999999999999
   317   2                   27.84      23.919999999999998      16.079999999999998
   318   1                   27.84      25.879999999999999      18.039999999999999
   319   1                   27.84      23.919999999999998                      20
   320   1                   27.84      25.879999999999999      21.959999999999997
   321   2                   27.84      23.919999999999998      23.919999999999998
