/home/bill-peng/Projects/BNPs/BNP/RAL/PtPd20SP75RAL9.lmp (written by ASE) 

321 	 atoms 
2  atom types
0.0                      40  xlo xhi
0.0                      40  ylo yhi
0.0                      40  zlo zhi


Atoms 

     1   2      10.199999999999999      18.039999999999999                      20
     2   1      10.199999999999999                      20      18.039999999999999
     3   1      10.199999999999999                      20      21.959999999999997
     4   2      10.199999999999999      21.959999999999997                      20
     5   2      12.159999999999998      14.119999999999997      18.039999999999999
     6   2      14.119999999999997      12.159999999999998      18.039999999999999
     7   1      14.119999999999997      14.119999999999997      16.079999999999998
     8   2      12.159999999999998      14.119999999999997      21.959999999999997
     9   2      14.119999999999997      12.159999999999998      21.959999999999997
    10   1      14.119999999999997      14.119999999999997                      20
    11   2      14.119999999999997      14.119999999999997      23.919999999999998
    12   1      12.159999999999998      18.039999999999999      14.119999999999997
    13   1      14.119999999999997      16.079999999999998      14.119999999999997
    14   2      14.119999999999997      18.039999999999999      12.159999999999998
    15   1      12.159999999999998      16.079999999999998      16.079999999999998
    16   1      12.159999999999998      18.039999999999999      18.039999999999999
    17   1      14.119999999999997      16.079999999999998      18.039999999999999
    18   1      14.119999999999997      18.039999999999999      16.079999999999998
    19   1      12.159999999999998      16.079999999999998                      20
    20   1      12.159999999999998      18.039999999999999      21.959999999999997
    21   1      14.119999999999997      16.079999999999998      21.959999999999997
    22   1      14.119999999999997      18.039999999999999                      20
    23   1      12.159999999999998      16.079999999999998      23.919999999999998
    24   1      12.159999999999998      18.039999999999999      25.879999999999999
    25   1      14.119999999999997      16.079999999999998      25.879999999999999
    26   1      14.119999999999997      18.039999999999999      23.919999999999998
    27   1      14.119999999999997      18.039999999999999                   27.84
    28   2      12.159999999999998      21.959999999999997      14.119999999999997
    29   1      14.119999999999997                      20      14.119999999999997
    30   1      14.119999999999997      21.959999999999997      12.159999999999998
    31   1      12.159999999999998                      20      16.079999999999998
    32   1      12.159999999999998      21.959999999999997      18.039999999999999
    33   1      14.119999999999997                      20      18.039999999999999
    34   2      14.119999999999997      21.959999999999997      16.079999999999998
    35   2      12.159999999999998                      20                      20
    36   1      12.159999999999998      21.959999999999997      21.959999999999997
    37   1      14.119999999999997                      20      21.959999999999997
    38   1      14.119999999999997      21.959999999999997                      20
    39   1      12.159999999999998                      20      23.919999999999998
    40   1      12.159999999999998      21.959999999999997      25.879999999999999
    41   1      14.119999999999997                      20      25.879999999999999
    42   1      14.119999999999997      21.959999999999997      23.919999999999998
    43   1      14.119999999999997      21.959999999999997                   27.84
    44   1      14.119999999999997      23.919999999999998      14.119999999999997
    45   1      12.159999999999998      23.919999999999998      16.079999999999998
    46   2      12.159999999999998      25.879999999999999      18.039999999999999
    47   1      14.119999999999997      23.919999999999998      18.039999999999999
    48   1      14.119999999999997      25.879999999999999      16.079999999999998
    49   1      12.159999999999998      23.919999999999998                      20
    50   2      12.159999999999998      25.879999999999999      21.959999999999997
    51   1      14.119999999999997      23.919999999999998      21.959999999999997
    52   1      14.119999999999997      25.879999999999999                      20
    53   1      12.159999999999998      23.919999999999998      23.919999999999998
    54   2      14.119999999999997      23.919999999999998      25.879999999999999
    55   2      14.119999999999997      25.879999999999999      23.919999999999998
    56   2      14.119999999999997                   27.84      18.039999999999999
    57   1      14.119999999999997                   27.84      21.959999999999997
    58   2      18.039999999999999      10.199999999999999                      20
    59   2      16.079999999999998      14.119999999999997      14.119999999999997
    60   1      18.039999999999999      12.159999999999998      14.119999999999997
    61   1      18.039999999999999      14.119999999999997      12.159999999999998
    62   1      16.079999999999998      12.159999999999998      16.079999999999998
    63   1      16.079999999999998      14.119999999999997      18.039999999999999
    64   1      18.039999999999999      12.159999999999998      18.039999999999999
    65   1      18.039999999999999      14.119999999999997      16.079999999999998
    66   2      16.079999999999998      12.159999999999998                      20
    67   1      16.079999999999998      14.119999999999997      21.959999999999997
    68   2      18.039999999999999      12.159999999999998      21.959999999999997
    69   1      18.039999999999999      14.119999999999997                      20
    70   1      16.079999999999998      12.159999999999998      23.919999999999998
    71   1      16.079999999999998      14.119999999999997      25.879999999999999
    72   1      18.039999999999999      12.159999999999998      25.879999999999999
    73   2      18.039999999999999      14.119999999999997      23.919999999999998
    74   2      18.039999999999999      14.119999999999997                   27.84
    75   2      16.079999999999998      16.079999999999998      12.159999999999998
    76   1      16.079999999999998      18.039999999999999      14.119999999999997
    77   1      18.039999999999999      16.079999999999998      14.119999999999997
    78   1      18.039999999999999      18.039999999999999      12.159999999999998
    79   1      16.079999999999998      16.079999999999998      16.079999999999998
    80   1      16.079999999999998      18.039999999999999      18.039999999999999
    81   1      18.039999999999999      16.079999999999998      18.039999999999999
    82   1      18.039999999999999      18.039999999999999      16.079999999999998
    83   1      16.079999999999998      16.079999999999998                      20
    84   1      16.079999999999998      18.039999999999999      21.959999999999997
    85   2      18.039999999999999      16.079999999999998      21.959999999999997
    86   2      18.039999999999999      18.039999999999999                      20
    87   1      16.079999999999998      16.079999999999998      23.919999999999998
    88   1      16.079999999999998      18.039999999999999      25.879999999999999
    89   2      18.039999999999999      16.079999999999998      25.879999999999999
    90   2      18.039999999999999      18.039999999999999      23.919999999999998
    91   1      16.079999999999998      16.079999999999998                   27.84
    92   1      18.039999999999999      18.039999999999999                   27.84
    93   2      18.039999999999999                      20      10.199999999999999
    94   1      16.079999999999998                      20      12.159999999999998
    95   1      16.079999999999998      21.959999999999997      14.119999999999997
    96   2      18.039999999999999                      20      14.119999999999997
    97   1      18.039999999999999      21.959999999999997      12.159999999999998
    98   2      16.079999999999998                      20      16.079999999999998
    99   1      16.079999999999998      21.959999999999997      18.039999999999999
   100   1      18.039999999999999                      20      18.039999999999999
   101   1      18.039999999999999      21.959999999999997      16.079999999999998
   102   2      16.079999999999998                      20                      20
   103   1      16.079999999999998      21.959999999999997      21.959999999999997
   104   1      18.039999999999999                      20      21.959999999999997
   105   2      18.039999999999999      21.959999999999997                      20
   106   2      16.079999999999998                      20      23.919999999999998
   107   1      16.079999999999998      21.959999999999997      25.879999999999999
   108   1      18.039999999999999                      20      25.879999999999999
   109   1      18.039999999999999      21.959999999999997      23.919999999999998
   110   1      16.079999999999998                      20                   27.84
   111   1      18.039999999999999                      20      29.800000000000001
   112   1      18.039999999999999      21.959999999999997                   27.84
   113   1      16.079999999999998      23.919999999999998      12.159999999999998
   114   1      16.079999999999998      25.879999999999999      14.119999999999997
   115   1      18.039999999999999      23.919999999999998      14.119999999999997
   116   1      18.039999999999999      25.879999999999999      12.159999999999998
   117   2      16.079999999999998      23.919999999999998      16.079999999999998
   118   1      16.079999999999998      25.879999999999999      18.039999999999999
   119   1      18.039999999999999      23.919999999999998      18.039999999999999
   120   1      18.039999999999999      25.879999999999999      16.079999999999998
   121   2      16.079999999999998      23.919999999999998                      20
   122   1      16.079999999999998      25.879999999999999      21.959999999999997
   123   1      18.039999999999999      23.919999999999998      21.959999999999997
   124   1      18.039999999999999      25.879999999999999                      20
   125   2      16.079999999999998      23.919999999999998      23.919999999999998
   126   1      16.079999999999998      25.879999999999999      25.879999999999999
   127   1      18.039999999999999      23.919999999999998      25.879999999999999
   128   1      18.039999999999999      25.879999999999999      23.919999999999998
   129   1      16.079999999999998      23.919999999999998                   27.84
   130   1      18.039999999999999      25.879999999999999                   27.84
   131   1      18.039999999999999                   27.84      14.119999999999997
   132   1      16.079999999999998                   27.84      16.079999999999998
   133   1      18.039999999999999                   27.84      18.039999999999999
   134   1      16.079999999999998                   27.84                      20
   135   1      18.039999999999999                   27.84      21.959999999999997
   136   1      18.039999999999999      29.800000000000001                      20
   137   1      16.079999999999998                   27.84      23.919999999999998
   138   1      18.039999999999999                   27.84      25.879999999999999
   139   1                      20      10.199999999999999      18.039999999999999
   140   1                      20      10.199999999999999      21.959999999999997
   141   1      21.959999999999997      10.199999999999999                      20
   142   1                      20      14.119999999999997      14.119999999999997
   143   2      21.959999999999997      12.159999999999998      14.119999999999997
   144   1      21.959999999999997      14.119999999999997      12.159999999999998
   145   1                      20      12.159999999999998      16.079999999999998
   146   1                      20      14.119999999999997      18.039999999999999
   147   2      21.959999999999997      12.159999999999998      18.039999999999999
   148   1      21.959999999999997      14.119999999999997      16.079999999999998
   149   2                      20      12.159999999999998                      20
   150   1                      20      14.119999999999997      21.959999999999997
   151   1      21.959999999999997      12.159999999999998      21.959999999999997
   152   1      21.959999999999997      14.119999999999997                      20
   153   1                      20      12.159999999999998      23.919999999999998
   154   1                      20      14.119999999999997      25.879999999999999
   155   1      21.959999999999997      12.159999999999998      25.879999999999999
   156   2      21.959999999999997      14.119999999999997      23.919999999999998
   157   1      21.959999999999997      14.119999999999997                   27.84
   158   1                      20      18.039999999999999      10.199999999999999
   159   1                      20      16.079999999999998      12.159999999999998
   160   1                      20      18.039999999999999      14.119999999999997
   161   1      21.959999999999997      16.079999999999998      14.119999999999997
   162   1      21.959999999999997      18.039999999999999      12.159999999999998
   163   1                      20      16.079999999999998      16.079999999999998
   164   2                      20      18.039999999999999      18.039999999999999
   165   2      21.959999999999997      16.079999999999998      18.039999999999999
   166   1      21.959999999999997      18.039999999999999      16.079999999999998
   167   1                      20      16.079999999999998                      20
   168   1                      20      18.039999999999999      21.959999999999997
   169   1      21.959999999999997      16.079999999999998      21.959999999999997
   170   2      21.959999999999997      18.039999999999999                      20
   171   1                      20      16.079999999999998      23.919999999999998
   172   1                      20      18.039999999999999      25.879999999999999
   173   1      21.959999999999997      16.079999999999998      25.879999999999999
   174   2      21.959999999999997      18.039999999999999      23.919999999999998
   175   1                      20      16.079999999999998                   27.84
   176   1                      20      18.039999999999999      29.800000000000001
   177   1      21.959999999999997      18.039999999999999                   27.84
   178   1                      20      21.959999999999997      10.199999999999999
   179   1      21.959999999999997                      20      10.199999999999999
   180   2                      20                      20      12.159999999999998
   181   1                      20      21.959999999999997      14.119999999999997
   182   2      21.959999999999997                      20      14.119999999999997
   183   1      21.959999999999997      21.959999999999997      12.159999999999998
   184   1                      20                      20      16.079999999999998
   185   1                      20      21.959999999999997      18.039999999999999
   186   1      21.959999999999997                      20      18.039999999999999
   187   1      21.959999999999997      21.959999999999997      16.079999999999998
   188   2                      20                      20                      20
   189   1                      20      21.959999999999997      21.959999999999997
   190   1      21.959999999999997                      20      21.959999999999997
   191   1      21.959999999999997      21.959999999999997                      20
   192   1                      20                      20      23.919999999999998
   193   1                      20      21.959999999999997      25.879999999999999
   194   1      21.959999999999997                      20      25.879999999999999
   195   1      21.959999999999997      21.959999999999997      23.919999999999998
   196   2                      20                      20                   27.84
   197   1                      20      21.959999999999997      29.800000000000001
   198   1      21.959999999999997                      20      29.800000000000001
   199   2      21.959999999999997      21.959999999999997                   27.84
   200   2                      20      23.919999999999998      12.159999999999998
   201   1                      20      25.879999999999999      14.119999999999997
   202   2      21.959999999999997      23.919999999999998      14.119999999999997
   203   1      21.959999999999997      25.879999999999999      12.159999999999998
   204   1                      20      23.919999999999998      16.079999999999998
   205   1                      20      25.879999999999999      18.039999999999999
   206   1      21.959999999999997      23.919999999999998      18.039999999999999
   207   1      21.959999999999997      25.879999999999999      16.079999999999998
   208   1                      20      23.919999999999998                      20
   209   2                      20      25.879999999999999      21.959999999999997
   210   1      21.959999999999997      23.919999999999998      21.959999999999997
   211   1      21.959999999999997      25.879999999999999                      20
   212   2                      20      23.919999999999998      23.919999999999998
   213   1                      20      25.879999999999999      25.879999999999999
   214   1      21.959999999999997      23.919999999999998      25.879999999999999
   215   2      21.959999999999997      25.879999999999999      23.919999999999998
   216   2                      20      23.919999999999998                   27.84
   217   1      21.959999999999997      25.879999999999999                   27.84
   218   1      21.959999999999997                   27.84      14.119999999999997
   219   1                      20                   27.84      16.079999999999998
   220   1                      20      29.800000000000001      18.039999999999999
   221   1      21.959999999999997                   27.84      18.039999999999999
   222   1                      20                   27.84                      20
   223   1                      20      29.800000000000001      21.959999999999997
   224   2      21.959999999999997                   27.84      21.959999999999997
   225   1      21.959999999999997      29.800000000000001                      20
   226   2                      20                   27.84      23.919999999999998
   227   1      21.959999999999997                   27.84      25.879999999999999
   228   2      23.919999999999998      14.119999999999997      14.119999999999997
   229   1      23.919999999999998      12.159999999999998      16.079999999999998
   230   1      23.919999999999998      14.119999999999997      18.039999999999999
   231   2      25.879999999999999      12.159999999999998      18.039999999999999
   232   1      25.879999999999999      14.119999999999997      16.079999999999998
   233   1      23.919999999999998      12.159999999999998                      20
   234   1      23.919999999999998      14.119999999999997      21.959999999999997
   235   1      25.879999999999999      12.159999999999998      21.959999999999997
   236   1      25.879999999999999      14.119999999999997                      20
   237   2      23.919999999999998      12.159999999999998      23.919999999999998
   238   1      23.919999999999998      14.119999999999997      25.879999999999999
   239   2      25.879999999999999      14.119999999999997      23.919999999999998
   240   2      23.919999999999998      16.079999999999998      12.159999999999998
   241   2      23.919999999999998      18.039999999999999      14.119999999999997
   242   2      25.879999999999999      16.079999999999998      14.119999999999997
   243   1      25.879999999999999      18.039999999999999      12.159999999999998
   244   1      23.919999999999998      16.079999999999998      16.079999999999998
   245   1      23.919999999999998      18.039999999999999      18.039999999999999
   246   1      25.879999999999999      16.079999999999998      18.039999999999999
   247   1      25.879999999999999      18.039999999999999      16.079999999999998
   248   2      23.919999999999998      16.079999999999998                      20
   249   1      23.919999999999998      18.039999999999999      21.959999999999997
   250   1      25.879999999999999      16.079999999999998      21.959999999999997
   251   1      25.879999999999999      18.039999999999999                      20
   252   1      23.919999999999998      16.079999999999998      23.919999999999998
   253   2      23.919999999999998      18.039999999999999      25.879999999999999
   254   1      25.879999999999999      16.079999999999998      25.879999999999999
   255   2      25.879999999999999      18.039999999999999      23.919999999999998
   256   1      23.919999999999998      16.079999999999998                   27.84
   257   1      25.879999999999999      18.039999999999999                   27.84
   258   2      23.919999999999998                      20      12.159999999999998
   259   2      23.919999999999998      21.959999999999997      14.119999999999997
   260   1      25.879999999999999                      20      14.119999999999997
   261   1      25.879999999999999      21.959999999999997      12.159999999999998
   262   1      23.919999999999998                      20      16.079999999999998
   263   1      23.919999999999998      21.959999999999997      18.039999999999999
   264   2      25.879999999999999                      20      18.039999999999999
   265   1      25.879999999999999      21.959999999999997      16.079999999999998
   266   1      23.919999999999998                      20                      20
   267   1      23.919999999999998      21.959999999999997      21.959999999999997
   268   1      25.879999999999999                      20      21.959999999999997
   269   1      25.879999999999999      21.959999999999997                      20
   270   1      23.919999999999998                      20      23.919999999999998
   271   2      23.919999999999998      21.959999999999997      25.879999999999999
   272   1      25.879999999999999                      20      25.879999999999999
   273   1      25.879999999999999      21.959999999999997      23.919999999999998
   274   2      23.919999999999998                      20                   27.84
   275   2      25.879999999999999      21.959999999999997                   27.84
   276   1      23.919999999999998      23.919999999999998      12.159999999999998
   277   1      23.919999999999998      25.879999999999999      14.119999999999997
   278   1      25.879999999999999      23.919999999999998      14.119999999999997
   279   1      23.919999999999998      23.919999999999998      16.079999999999998
   280   1      23.919999999999998      25.879999999999999      18.039999999999999
   281   1      25.879999999999999      23.919999999999998      18.039999999999999
   282   1      25.879999999999999      25.879999999999999      16.079999999999998
   283   2      23.919999999999998      23.919999999999998                      20
   284   2      23.919999999999998      25.879999999999999      21.959999999999997
   285   2      25.879999999999999      23.919999999999998      21.959999999999997
   286   1      25.879999999999999      25.879999999999999                      20
   287   1      23.919999999999998      23.919999999999998      23.919999999999998
   288   2      23.919999999999998      25.879999999999999      25.879999999999999
   289   1      25.879999999999999      23.919999999999998      25.879999999999999
   290   1      25.879999999999999      25.879999999999999      23.919999999999998
   291   1      23.919999999999998      23.919999999999998                   27.84
   292   1      23.919999999999998                   27.84      16.079999999999998
   293   1      25.879999999999999                   27.84      18.039999999999999
   294   1      23.919999999999998                   27.84                      20
   295   1      25.879999999999999                   27.84      21.959999999999997
   296   1      23.919999999999998                   27.84      23.919999999999998
   297   1                   27.84      14.119999999999997      18.039999999999999
   298   1                   27.84      14.119999999999997      21.959999999999997
   299   1                   27.84      18.039999999999999      14.119999999999997
   300   1                   27.84      16.079999999999998      16.079999999999998
   301   1                   27.84      18.039999999999999      18.039999999999999
   302   1                   27.84      16.079999999999998                      20
   303   2                   27.84      18.039999999999999      21.959999999999997
   304   1      29.800000000000001      18.039999999999999                      20
   305   2                   27.84      16.079999999999998      23.919999999999998
   306   1                   27.84      18.039999999999999      25.879999999999999
   307   1                   27.84      21.959999999999997      14.119999999999997
   308   1                   27.84                      20      16.079999999999998
   309   1                   27.84      21.959999999999997      18.039999999999999
   310   1      29.800000000000001                      20      18.039999999999999
   311   1                   27.84                      20                      20
   312   1                   27.84      21.959999999999997      21.959999999999997
   313   1      29.800000000000001                      20      21.959999999999997
   314   1      29.800000000000001      21.959999999999997                      20
   315   1                   27.84                      20      23.919999999999998
   316   1                   27.84      21.959999999999997      25.879999999999999
   317   1                   27.84      23.919999999999998      16.079999999999998
   318   2                   27.84      25.879999999999999      18.039999999999999
   319   1                   27.84      23.919999999999998                      20
   320   1                   27.84      25.879999999999999      21.959999999999997
   321   1                   27.84      23.919999999999998      23.919999999999998
