/home/bill-peng/Projects/BNPs/BNP/RAL/PtPd20SP50RAL6.lmp (written by ASE) 

321 	 atoms 
2  atom types
0.0                      40  xlo xhi
0.0                      40  ylo yhi
0.0                      40  zlo zhi


Atoms 

     1   1      10.199999999999999      18.039999999999999                      20
     2   2      10.199999999999999                      20      18.039999999999999
     3   1      10.199999999999999                      20      21.959999999999997
     4   2      10.199999999999999      21.959999999999997                      20
     5   2      12.159999999999998      14.119999999999997      18.039999999999999
     6   1      14.119999999999997      12.159999999999998      18.039999999999999
     7   1      14.119999999999997      14.119999999999997      16.079999999999998
     8   2      12.159999999999998      14.119999999999997      21.959999999999997
     9   2      14.119999999999997      12.159999999999998      21.959999999999997
    10   1      14.119999999999997      14.119999999999997                      20
    11   2      14.119999999999997      14.119999999999997      23.919999999999998
    12   1      12.159999999999998      18.039999999999999      14.119999999999997
    13   2      14.119999999999997      16.079999999999998      14.119999999999997
    14   1      14.119999999999997      18.039999999999999      12.159999999999998
    15   1      12.159999999999998      16.079999999999998      16.079999999999998
    16   1      12.159999999999998      18.039999999999999      18.039999999999999
    17   1      14.119999999999997      16.079999999999998      18.039999999999999
    18   2      14.119999999999997      18.039999999999999      16.079999999999998
    19   1      12.159999999999998      16.079999999999998                      20
    20   1      12.159999999999998      18.039999999999999      21.959999999999997
    21   2      14.119999999999997      16.079999999999998      21.959999999999997
    22   1      14.119999999999997      18.039999999999999                      20
    23   1      12.159999999999998      16.079999999999998      23.919999999999998
    24   1      12.159999999999998      18.039999999999999      25.879999999999999
    25   1      14.119999999999997      16.079999999999998      25.879999999999999
    26   1      14.119999999999997      18.039999999999999      23.919999999999998
    27   2      14.119999999999997      18.039999999999999                   27.84
    28   1      12.159999999999998      21.959999999999997      14.119999999999997
    29   2      14.119999999999997                      20      14.119999999999997
    30   2      14.119999999999997      21.959999999999997      12.159999999999998
    31   1      12.159999999999998                      20      16.079999999999998
    32   1      12.159999999999998      21.959999999999997      18.039999999999999
    33   2      14.119999999999997                      20      18.039999999999999
    34   1      14.119999999999997      21.959999999999997      16.079999999999998
    35   1      12.159999999999998                      20                      20
    36   1      12.159999999999998      21.959999999999997      21.959999999999997
    37   1      14.119999999999997                      20      21.959999999999997
    38   2      14.119999999999997      21.959999999999997                      20
    39   2      12.159999999999998                      20      23.919999999999998
    40   2      12.159999999999998      21.959999999999997      25.879999999999999
    41   1      14.119999999999997                      20      25.879999999999999
    42   1      14.119999999999997      21.959999999999997      23.919999999999998
    43   2      14.119999999999997      21.959999999999997                   27.84
    44   1      14.119999999999997      23.919999999999998      14.119999999999997
    45   2      12.159999999999998      23.919999999999998      16.079999999999998
    46   2      12.159999999999998      25.879999999999999      18.039999999999999
    47   1      14.119999999999997      23.919999999999998      18.039999999999999
    48   2      14.119999999999997      25.879999999999999      16.079999999999998
    49   2      12.159999999999998      23.919999999999998                      20
    50   1      12.159999999999998      25.879999999999999      21.959999999999997
    51   1      14.119999999999997      23.919999999999998      21.959999999999997
    52   2      14.119999999999997      25.879999999999999                      20
    53   2      12.159999999999998      23.919999999999998      23.919999999999998
    54   2      14.119999999999997      23.919999999999998      25.879999999999999
    55   2      14.119999999999997      25.879999999999999      23.919999999999998
    56   1      14.119999999999997                   27.84      18.039999999999999
    57   2      14.119999999999997                   27.84      21.959999999999997
    58   2      18.039999999999999      10.199999999999999                      20
    59   1      16.079999999999998      14.119999999999997      14.119999999999997
    60   1      18.039999999999999      12.159999999999998      14.119999999999997
    61   1      18.039999999999999      14.119999999999997      12.159999999999998
    62   1      16.079999999999998      12.159999999999998      16.079999999999998
    63   1      16.079999999999998      14.119999999999997      18.039999999999999
    64   2      18.039999999999999      12.159999999999998      18.039999999999999
    65   2      18.039999999999999      14.119999999999997      16.079999999999998
    66   2      16.079999999999998      12.159999999999998                      20
    67   2      16.079999999999998      14.119999999999997      21.959999999999997
    68   1      18.039999999999999      12.159999999999998      21.959999999999997
    69   1      18.039999999999999      14.119999999999997                      20
    70   1      16.079999999999998      12.159999999999998      23.919999999999998
    71   2      16.079999999999998      14.119999999999997      25.879999999999999
    72   1      18.039999999999999      12.159999999999998      25.879999999999999
    73   2      18.039999999999999      14.119999999999997      23.919999999999998
    74   2      18.039999999999999      14.119999999999997                   27.84
    75   1      16.079999999999998      16.079999999999998      12.159999999999998
    76   2      16.079999999999998      18.039999999999999      14.119999999999997
    77   2      18.039999999999999      16.079999999999998      14.119999999999997
    78   1      18.039999999999999      18.039999999999999      12.159999999999998
    79   2      16.079999999999998      16.079999999999998      16.079999999999998
    80   1      16.079999999999998      18.039999999999999      18.039999999999999
    81   2      18.039999999999999      16.079999999999998      18.039999999999999
    82   2      18.039999999999999      18.039999999999999      16.079999999999998
    83   1      16.079999999999998      16.079999999999998                      20
    84   2      16.079999999999998      18.039999999999999      21.959999999999997
    85   1      18.039999999999999      16.079999999999998      21.959999999999997
    86   2      18.039999999999999      18.039999999999999                      20
    87   1      16.079999999999998      16.079999999999998      23.919999999999998
    88   1      16.079999999999998      18.039999999999999      25.879999999999999
    89   1      18.039999999999999      16.079999999999998      25.879999999999999
    90   1      18.039999999999999      18.039999999999999      23.919999999999998
    91   2      16.079999999999998      16.079999999999998                   27.84
    92   1      18.039999999999999      18.039999999999999                   27.84
    93   2      18.039999999999999                      20      10.199999999999999
    94   2      16.079999999999998                      20      12.159999999999998
    95   2      16.079999999999998      21.959999999999997      14.119999999999997
    96   2      18.039999999999999                      20      14.119999999999997
    97   1      18.039999999999999      21.959999999999997      12.159999999999998
    98   1      16.079999999999998                      20      16.079999999999998
    99   1      16.079999999999998      21.959999999999997      18.039999999999999
   100   2      18.039999999999999                      20      18.039999999999999
   101   1      18.039999999999999      21.959999999999997      16.079999999999998
   102   2      16.079999999999998                      20                      20
   103   2      16.079999999999998      21.959999999999997      21.959999999999997
   104   1      18.039999999999999                      20      21.959999999999997
   105   2      18.039999999999999      21.959999999999997                      20
   106   1      16.079999999999998                      20      23.919999999999998
   107   2      16.079999999999998      21.959999999999997      25.879999999999999
   108   1      18.039999999999999                      20      25.879999999999999
   109   1      18.039999999999999      21.959999999999997      23.919999999999998
   110   2      16.079999999999998                      20                   27.84
   111   1      18.039999999999999                      20      29.800000000000001
   112   1      18.039999999999999      21.959999999999997                   27.84
   113   1      16.079999999999998      23.919999999999998      12.159999999999998
   114   1      16.079999999999998      25.879999999999999      14.119999999999997
   115   1      18.039999999999999      23.919999999999998      14.119999999999997
   116   2      18.039999999999999      25.879999999999999      12.159999999999998
   117   2      16.079999999999998      23.919999999999998      16.079999999999998
   118   1      16.079999999999998      25.879999999999999      18.039999999999999
   119   2      18.039999999999999      23.919999999999998      18.039999999999999
   120   1      18.039999999999999      25.879999999999999      16.079999999999998
   121   1      16.079999999999998      23.919999999999998                      20
   122   2      16.079999999999998      25.879999999999999      21.959999999999997
   123   2      18.039999999999999      23.919999999999998      21.959999999999997
   124   1      18.039999999999999      25.879999999999999                      20
   125   2      16.079999999999998      23.919999999999998      23.919999999999998
   126   2      16.079999999999998      25.879999999999999      25.879999999999999
   127   2      18.039999999999999      23.919999999999998      25.879999999999999
   128   1      18.039999999999999      25.879999999999999      23.919999999999998
   129   2      16.079999999999998      23.919999999999998                   27.84
   130   2      18.039999999999999      25.879999999999999                   27.84
   131   2      18.039999999999999                   27.84      14.119999999999997
   132   2      16.079999999999998                   27.84      16.079999999999998
   133   2      18.039999999999999                   27.84      18.039999999999999
   134   2      16.079999999999998                   27.84                      20
   135   1      18.039999999999999                   27.84      21.959999999999997
   136   2      18.039999999999999      29.800000000000001                      20
   137   2      16.079999999999998                   27.84      23.919999999999998
   138   2      18.039999999999999                   27.84      25.879999999999999
   139   2                      20      10.199999999999999      18.039999999999999
   140   1                      20      10.199999999999999      21.959999999999997
   141   2      21.959999999999997      10.199999999999999                      20
   142   1                      20      14.119999999999997      14.119999999999997
   143   1      21.959999999999997      12.159999999999998      14.119999999999997
   144   2      21.959999999999997      14.119999999999997      12.159999999999998
   145   2                      20      12.159999999999998      16.079999999999998
   146   1                      20      14.119999999999997      18.039999999999999
   147   1      21.959999999999997      12.159999999999998      18.039999999999999
   148   1      21.959999999999997      14.119999999999997      16.079999999999998
   149   1                      20      12.159999999999998                      20
   150   1                      20      14.119999999999997      21.959999999999997
   151   2      21.959999999999997      12.159999999999998      21.959999999999997
   152   1      21.959999999999997      14.119999999999997                      20
   153   2                      20      12.159999999999998      23.919999999999998
   154   2                      20      14.119999999999997      25.879999999999999
   155   2      21.959999999999997      12.159999999999998      25.879999999999999
   156   2      21.959999999999997      14.119999999999997      23.919999999999998
   157   1      21.959999999999997      14.119999999999997                   27.84
   158   1                      20      18.039999999999999      10.199999999999999
   159   2                      20      16.079999999999998      12.159999999999998
   160   2                      20      18.039999999999999      14.119999999999997
   161   2      21.959999999999997      16.079999999999998      14.119999999999997
   162   2      21.959999999999997      18.039999999999999      12.159999999999998
   163   1                      20      16.079999999999998      16.079999999999998
   164   2                      20      18.039999999999999      18.039999999999999
   165   2      21.959999999999997      16.079999999999998      18.039999999999999
   166   2      21.959999999999997      18.039999999999999      16.079999999999998
   167   2                      20      16.079999999999998                      20
   168   1                      20      18.039999999999999      21.959999999999997
   169   1      21.959999999999997      16.079999999999998      21.959999999999997
   170   1      21.959999999999997      18.039999999999999                      20
   171   2                      20      16.079999999999998      23.919999999999998
   172   2                      20      18.039999999999999      25.879999999999999
   173   1      21.959999999999997      16.079999999999998      25.879999999999999
   174   2      21.959999999999997      18.039999999999999      23.919999999999998
   175   2                      20      16.079999999999998                   27.84
   176   1                      20      18.039999999999999      29.800000000000001
   177   2      21.959999999999997      18.039999999999999                   27.84
   178   1                      20      21.959999999999997      10.199999999999999
   179   1      21.959999999999997                      20      10.199999999999999
   180   2                      20                      20      12.159999999999998
   181   1                      20      21.959999999999997      14.119999999999997
   182   1      21.959999999999997                      20      14.119999999999997
   183   2      21.959999999999997      21.959999999999997      12.159999999999998
   184   2                      20                      20      16.079999999999998
   185   1                      20      21.959999999999997      18.039999999999999
   186   2      21.959999999999997                      20      18.039999999999999
   187   2      21.959999999999997      21.959999999999997      16.079999999999998
   188   2                      20                      20                      20
   189   2                      20      21.959999999999997      21.959999999999997
   190   2      21.959999999999997                      20      21.959999999999997
   191   2      21.959999999999997      21.959999999999997                      20
   192   1                      20                      20      23.919999999999998
   193   2                      20      21.959999999999997      25.879999999999999
   194   2      21.959999999999997                      20      25.879999999999999
   195   2      21.959999999999997      21.959999999999997      23.919999999999998
   196   1                      20                      20                   27.84
   197   2                      20      21.959999999999997      29.800000000000001
   198   1      21.959999999999997                      20      29.800000000000001
   199   1      21.959999999999997      21.959999999999997                   27.84
   200   1                      20      23.919999999999998      12.159999999999998
   201   1                      20      25.879999999999999      14.119999999999997
   202   1      21.959999999999997      23.919999999999998      14.119999999999997
   203   1      21.959999999999997      25.879999999999999      12.159999999999998
   204   1                      20      23.919999999999998      16.079999999999998
   205   2                      20      25.879999999999999      18.039999999999999
   206   1      21.959999999999997      23.919999999999998      18.039999999999999
   207   2      21.959999999999997      25.879999999999999      16.079999999999998
   208   1                      20      23.919999999999998                      20
   209   1                      20      25.879999999999999      21.959999999999997
   210   2      21.959999999999997      23.919999999999998      21.959999999999997
   211   1      21.959999999999997      25.879999999999999                      20
   212   2                      20      23.919999999999998      23.919999999999998
   213   1                      20      25.879999999999999      25.879999999999999
   214   2      21.959999999999997      23.919999999999998      25.879999999999999
   215   2      21.959999999999997      25.879999999999999      23.919999999999998
   216   1                      20      23.919999999999998                   27.84
   217   2      21.959999999999997      25.879999999999999                   27.84
   218   2      21.959999999999997                   27.84      14.119999999999997
   219   1                      20                   27.84      16.079999999999998
   220   2                      20      29.800000000000001      18.039999999999999
   221   2      21.959999999999997                   27.84      18.039999999999999
   222   1                      20                   27.84                      20
   223   2                      20      29.800000000000001      21.959999999999997
   224   2      21.959999999999997                   27.84      21.959999999999997
   225   2      21.959999999999997      29.800000000000001                      20
   226   2                      20                   27.84      23.919999999999998
   227   2      21.959999999999997                   27.84      25.879999999999999
   228   1      23.919999999999998      14.119999999999997      14.119999999999997
   229   1      23.919999999999998      12.159999999999998      16.079999999999998
   230   1      23.919999999999998      14.119999999999997      18.039999999999999
   231   2      25.879999999999999      12.159999999999998      18.039999999999999
   232   1      25.879999999999999      14.119999999999997      16.079999999999998
   233   1      23.919999999999998      12.159999999999998                      20
   234   1      23.919999999999998      14.119999999999997      21.959999999999997
   235   1      25.879999999999999      12.159999999999998      21.959999999999997
   236   2      25.879999999999999      14.119999999999997                      20
   237   2      23.919999999999998      12.159999999999998      23.919999999999998
   238   1      23.919999999999998      14.119999999999997      25.879999999999999
   239   1      25.879999999999999      14.119999999999997      23.919999999999998
   240   2      23.919999999999998      16.079999999999998      12.159999999999998
   241   1      23.919999999999998      18.039999999999999      14.119999999999997
   242   1      25.879999999999999      16.079999999999998      14.119999999999997
   243   1      25.879999999999999      18.039999999999999      12.159999999999998
   244   1      23.919999999999998      16.079999999999998      16.079999999999998
   245   1      23.919999999999998      18.039999999999999      18.039999999999999
   246   2      25.879999999999999      16.079999999999998      18.039999999999999
   247   1      25.879999999999999      18.039999999999999      16.079999999999998
   248   1      23.919999999999998      16.079999999999998                      20
   249   1      23.919999999999998      18.039999999999999      21.959999999999997
   250   2      25.879999999999999      16.079999999999998      21.959999999999997
   251   2      25.879999999999999      18.039999999999999                      20
   252   2      23.919999999999998      16.079999999999998      23.919999999999998
   253   2      23.919999999999998      18.039999999999999      25.879999999999999
   254   2      25.879999999999999      16.079999999999998      25.879999999999999
   255   2      25.879999999999999      18.039999999999999      23.919999999999998
   256   1      23.919999999999998      16.079999999999998                   27.84
   257   1      25.879999999999999      18.039999999999999                   27.84
   258   2      23.919999999999998                      20      12.159999999999998
   259   1      23.919999999999998      21.959999999999997      14.119999999999997
   260   2      25.879999999999999                      20      14.119999999999997
   261   1      25.879999999999999      21.959999999999997      12.159999999999998
   262   1      23.919999999999998                      20      16.079999999999998
   263   1      23.919999999999998      21.959999999999997      18.039999999999999
   264   2      25.879999999999999                      20      18.039999999999999
   265   1      25.879999999999999      21.959999999999997      16.079999999999998
   266   1      23.919999999999998                      20                      20
   267   1      23.919999999999998      21.959999999999997      21.959999999999997
   268   2      25.879999999999999                      20      21.959999999999997
   269   2      25.879999999999999      21.959999999999997                      20
   270   1      23.919999999999998                      20      23.919999999999998
   271   2      23.919999999999998      21.959999999999997      25.879999999999999
   272   2      25.879999999999999                      20      25.879999999999999
   273   1      25.879999999999999      21.959999999999997      23.919999999999998
   274   1      23.919999999999998                      20                   27.84
   275   1      25.879999999999999      21.959999999999997                   27.84
   276   2      23.919999999999998      23.919999999999998      12.159999999999998
   277   1      23.919999999999998      25.879999999999999      14.119999999999997
   278   1      25.879999999999999      23.919999999999998      14.119999999999997
   279   2      23.919999999999998      23.919999999999998      16.079999999999998
   280   1      23.919999999999998      25.879999999999999      18.039999999999999
   281   1      25.879999999999999      23.919999999999998      18.039999999999999
   282   2      25.879999999999999      25.879999999999999      16.079999999999998
   283   2      23.919999999999998      23.919999999999998                      20
   284   2      23.919999999999998      25.879999999999999      21.959999999999997
   285   1      25.879999999999999      23.919999999999998      21.959999999999997
   286   2      25.879999999999999      25.879999999999999                      20
   287   2      23.919999999999998      23.919999999999998      23.919999999999998
   288   2      23.919999999999998      25.879999999999999      25.879999999999999
   289   1      25.879999999999999      23.919999999999998      25.879999999999999
   290   1      25.879999999999999      25.879999999999999      23.919999999999998
   291   2      23.919999999999998      23.919999999999998                   27.84
   292   1      23.919999999999998                   27.84      16.079999999999998
   293   2      25.879999999999999                   27.84      18.039999999999999
   294   2      23.919999999999998                   27.84                      20
   295   1      25.879999999999999                   27.84      21.959999999999997
   296   2      23.919999999999998                   27.84      23.919999999999998
   297   1                   27.84      14.119999999999997      18.039999999999999
   298   1                   27.84      14.119999999999997      21.959999999999997
   299   1                   27.84      18.039999999999999      14.119999999999997
   300   2                   27.84      16.079999999999998      16.079999999999998
   301   2                   27.84      18.039999999999999      18.039999999999999
   302   2                   27.84      16.079999999999998                      20
   303   2                   27.84      18.039999999999999      21.959999999999997
   304   2      29.800000000000001      18.039999999999999                      20
   305   1                   27.84      16.079999999999998      23.919999999999998
   306   2                   27.84      18.039999999999999      25.879999999999999
   307   1                   27.84      21.959999999999997      14.119999999999997
   308   1                   27.84                      20      16.079999999999998
   309   2                   27.84      21.959999999999997      18.039999999999999
   310   2      29.800000000000001                      20      18.039999999999999
   311   2                   27.84                      20                      20
   312   1                   27.84      21.959999999999997      21.959999999999997
   313   1      29.800000000000001                      20      21.959999999999997
   314   1      29.800000000000001      21.959999999999997                      20
   315   2                   27.84                      20      23.919999999999998
   316   1                   27.84      21.959999999999997      25.879999999999999
   317   2                   27.84      23.919999999999998      16.079999999999998
   318   2                   27.84      25.879999999999999      18.039999999999999
   319   1                   27.84      23.919999999999998                      20
   320   1                   27.84      25.879999999999999      21.959999999999997
   321   1                   27.84      23.919999999999998      23.919999999999998
