LAMMPS data file via write_data, version 20 Nov 2019, timestep = 0

677 atoms
2 atom types

0.0000000000000000e+00 4.0000000000000000e+01 xlo xhi
0.0000000000000000e+00 4.0000000000000000e+01 ylo yhi
0.0000000000000000e+00 4.0000000000000000e+01 zlo zhi

Masses

1 106.42
2 195.08

Atoms # atomic

1 1 6.3849999999999998e+00 1.4164999999999999e+01 2.0000000000000000e+01 0 0 0
2 1 6.3849999999999998e+00 1.6109999999999999e+01 1.8055000000000000e+01 0 0 0
3 1 6.3849999999999998e+00 1.8055000000000000e+01 1.6109999999999999e+01 0 0 0
4 1 6.3849999999999998e+00 1.6109999999999999e+01 2.1945000000000000e+01 0 0 0
5 1 6.3849999999999998e+00 1.8055000000000000e+01 2.0000000000000000e+01 0 0 0
6 1 6.3849999999999998e+00 1.8055000000000000e+01 2.3890000000000001e+01 0 0 0
7 1 6.3849999999999998e+00 2.0000000000000000e+01 1.4164999999999999e+01 0 0 0
8 1 6.3849999999999998e+00 2.0000000000000000e+01 1.8055000000000000e+01 0 0 0
9 1 6.3849999999999998e+00 2.1945000000000000e+01 1.6109999999999999e+01 0 0 0
10 1 6.3849999999999998e+00 2.0000000000000000e+01 2.1945000000000000e+01 0 0 0
11 1 6.3849999999999998e+00 2.1945000000000000e+01 2.0000000000000000e+01 0 0 0
12 1 6.3849999999999998e+00 2.0000000000000000e+01 2.5835000000000001e+01 0 0 0
13 1 6.3849999999999998e+00 2.1945000000000000e+01 2.3890000000000001e+01 0 0 0
14 1 6.3849999999999998e+00 2.3890000000000001e+01 1.8055000000000000e+01 0 0 0
15 1 6.3849999999999998e+00 2.3890000000000001e+01 2.1945000000000000e+01 0 0 0
16 1 6.3849999999999998e+00 2.5835000000000001e+01 2.0000000000000000e+01 0 0 0
17 1 1.0274999999999999e+01 1.0274999999999999e+01 1.6109999999999999e+01 0 0 0
18 1 1.0274999999999999e+01 1.0274999999999999e+01 2.0000000000000000e+01 0 0 0
19 1 1.0274999999999999e+01 1.0274999999999999e+01 2.3890000000000001e+01 0 0 0
20 1 8.3300000000000001e+00 1.4164999999999999e+01 1.4164999999999999e+01 0 0 0
21 1 1.0274999999999999e+01 1.2219999999999999e+01 1.4164999999999999e+01 0 0 0
22 1 1.0274999999999999e+01 1.4164999999999999e+01 1.2219999999999999e+01 0 0 0
23 1 8.3300000000000001e+00 1.2219999999999999e+01 1.6109999999999999e+01 0 0 0
24 1 8.3300000000000001e+00 1.4164999999999999e+01 1.8055000000000000e+01 0 0 0
25 2 2.7840000000000000e+01 2.3919999999999998e+01 2.3919999999999998e+01 0 0 0
26 2 2.7840000000000000e+01 2.5879999999999999e+01 2.1959999999999997e+01 0 0 0
27 1 8.3300000000000001e+00 1.2219999999999999e+01 2.0000000000000000e+01 0 0 0
28 1 8.3300000000000001e+00 1.4164999999999999e+01 2.1945000000000000e+01 0 0 0
29 2 2.7840000000000000e+01 2.3919999999999998e+01 2.0000000000000000e+01 0 0 0
30 2 2.7840000000000000e+01 2.5879999999999999e+01 1.8039999999999999e+01 0 0 0
31 1 8.3300000000000001e+00 1.2219999999999999e+01 2.3890000000000001e+01 0 0 0
32 1 8.3300000000000001e+00 1.4164999999999999e+01 2.5835000000000001e+01 0 0 0
33 1 1.0274999999999999e+01 1.2219999999999999e+01 2.5835000000000001e+01 0 0 0
34 2 2.7840000000000000e+01 2.3919999999999998e+01 1.6079999999999998e+01 0 0 0
35 1 1.0274999999999999e+01 1.4164999999999999e+01 2.7780000000000001e+01 0 0 0
36 1 1.0274999999999999e+01 1.6109999999999999e+01 1.0274999999999999e+01 0 0 0
37 1 8.3300000000000001e+00 1.6109999999999999e+01 1.2219999999999999e+01 0 0 0
38 1 8.3300000000000001e+00 1.8055000000000000e+01 1.4164999999999999e+01 0 0 0
39 2 2.7840000000000000e+01 2.1959999999999997e+01 2.5879999999999999e+01 0 0 0
40 2 2.7840000000000000e+01 2.0000000000000000e+01 2.3919999999999998e+01 0 0 0
41 1 8.3300000000000001e+00 1.6109999999999999e+01 1.6109999999999999e+01 0 0 0
42 2 2.9800000000000001e+01 2.1959999999999997e+01 2.0000000000000000e+01 0 0 0
43 2 2.9800000000000001e+01 2.0000000000000000e+01 2.1959999999999997e+01 0 0 0
44 2 2.7840000000000000e+01 2.1959999999999997e+01 2.1959999999999997e+01 0 0 0
45 2 2.7840000000000000e+01 2.0000000000000000e+01 2.0000000000000000e+01 0 0 0
46 2 2.9800000000000001e+01 2.0000000000000000e+01 1.8039999999999999e+01 0 0 0
47 2 2.7840000000000000e+01 2.1959999999999997e+01 1.8039999999999999e+01 0 0 0
48 2 2.7840000000000000e+01 2.0000000000000000e+01 1.6079999999999998e+01 0 0 0
49 1 8.3300000000000001e+00 1.6109999999999999e+01 2.3890000000000001e+01 0 0 0
50 1 8.3300000000000001e+00 1.8055000000000000e+01 2.5835000000000001e+01 0 0 0
51 2 2.7840000000000000e+01 2.1959999999999997e+01 1.4119999999999997e+01 0 0 0
52 2 2.7840000000000000e+01 1.8039999999999999e+01 2.5879999999999999e+01 0 0 0
53 1 8.3300000000000001e+00 1.6109999999999999e+01 2.7780000000000001e+01 0 0 0
54 1 1.0274999999999999e+01 1.6109999999999999e+01 2.9725000000000001e+01 0 0 0
55 2 2.7840000000000000e+01 1.6079999999999998e+01 2.3919999999999998e+01 0 0 0
56 1 1.0274999999999999e+01 2.0000000000000000e+01 1.0274999999999999e+01 0 0 0
57 1 8.3300000000000001e+00 2.0000000000000000e+01 1.2219999999999999e+01 0 0 0
58 1 8.3300000000000001e+00 2.1945000000000000e+01 1.4164999999999999e+01 0 0 0
59 2 2.9800000000000001e+01 1.8039999999999999e+01 2.0000000000000000e+01 0 0 0
60 2 2.7840000000000000e+01 1.8039999999999999e+01 2.1959999999999997e+01 0 0 0
61 2 2.7840000000000000e+01 1.6079999999999998e+01 2.0000000000000000e+01 0 0 0
62 2 2.7840000000000000e+01 1.8039999999999999e+01 1.8039999999999999e+01 0 0 0
63 2 2.7840000000000000e+01 1.6079999999999998e+01 1.6079999999999998e+01 0 0 0
64 2 2.7840000000000000e+01 1.8039999999999999e+01 1.4119999999999997e+01 0 0 0
65 2 2.7840000000000000e+01 1.4119999999999997e+01 2.1959999999999997e+01 0 0 0
66 2 2.7840000000000000e+01 1.4119999999999997e+01 1.8039999999999999e+01 0 0 0
67 2 2.3919999999999998e+01 2.7840000000000000e+01 2.3919999999999998e+01 0 0 0
68 2 2.5879999999999999e+01 2.7840000000000000e+01 2.1959999999999997e+01 0 0 0
69 2 2.3919999999999998e+01 2.7840000000000000e+01 2.0000000000000000e+01 0 0 0
70 1 8.3300000000000001e+00 2.1945000000000000e+01 2.5835000000000001e+01 0 0 0
71 2 2.5879999999999999e+01 2.7840000000000000e+01 1.8039999999999999e+01 0 0 0
72 2 2.3919999999999998e+01 2.7840000000000000e+01 1.6079999999999998e+01 0 0 0
73 1 8.3300000000000001e+00 2.0000000000000000e+01 2.7780000000000001e+01 0 0 0
74 1 1.0274999999999999e+01 2.0000000000000000e+01 2.9725000000000001e+01 0 0 0
75 2 2.3919999999999998e+01 2.3919999999999998e+01 2.7840000000000000e+01 0 0 0
76 1 1.0274999999999999e+01 2.3890000000000001e+01 1.0274999999999999e+01 0 0 0
77 1 8.3300000000000001e+00 2.3890000000000001e+01 1.2219999999999999e+01 0 0 0
78 1 8.3300000000000001e+00 2.5835000000000001e+01 1.4164999999999999e+01 0 0 0
79 2 2.5879999999999999e+01 2.5879999999999999e+01 2.3919999999999998e+01 0 0 0
80 1 1.0274999999999999e+01 2.5835000000000001e+01 1.2219999999999999e+01 0 0 0
81 1 8.3300000000000001e+00 2.3890000000000001e+01 1.6109999999999999e+01 0 0 0
82 1 8.3300000000000001e+00 2.5835000000000001e+01 1.8055000000000000e+01 0 0 0
83 2 2.5879999999999999e+01 2.3919999999999998e+01 2.5879999999999999e+01 0 0 0
84 2 2.3919999999999998e+01 2.5879999999999999e+01 2.5879999999999999e+01 0 0 0
85 2 2.3919999999999998e+01 2.3919999999999998e+01 2.3919999999999998e+01 0 0 0
86 1 8.3300000000000001e+00 2.5835000000000001e+01 2.1945000000000000e+01 0 0 0
87 2 2.5879999999999999e+01 2.5879999999999999e+01 2.0000000000000000e+01 0 0 0
88 2 2.5879999999999999e+01 2.3919999999999998e+01 2.1959999999999997e+01 0 0 0
89 1 8.3300000000000001e+00 2.3890000000000001e+01 2.3890000000000001e+01 0 0 0
90 1 8.3300000000000001e+00 2.5835000000000001e+01 2.5835000000000001e+01 0 0 0
91 2 2.3919999999999998e+01 2.5879999999999999e+01 2.1959999999999997e+01 0 0 0
92 2 2.3919999999999998e+01 2.3919999999999998e+01 2.0000000000000000e+01 0 0 0
93 1 8.3300000000000001e+00 2.3890000000000001e+01 2.7780000000000001e+01 0 0 0
94 1 1.0274999999999999e+01 2.3890000000000001e+01 2.9725000000000001e+01 0 0 0
95 1 1.0274999999999999e+01 2.5835000000000001e+01 2.7780000000000001e+01 0 0 0
96 1 1.0274999999999999e+01 2.7780000000000001e+01 1.4164999999999999e+01 0 0 0
97 1 8.3300000000000001e+00 2.7780000000000001e+01 1.6109999999999999e+01 0 0 0
98 2 2.5879999999999999e+01 2.5879999999999999e+01 1.6079999999999998e+01 0 0 0
99 1 1.0274999999999999e+01 2.9725000000000001e+01 1.6109999999999999e+01 0 0 0
100 1 8.3300000000000001e+00 2.7780000000000001e+01 2.0000000000000000e+01 0 0 0
101 2 2.5879999999999999e+01 2.3919999999999998e+01 1.8039999999999999e+01 0 0 0
102 1 1.0274999999999999e+01 2.9725000000000001e+01 2.0000000000000000e+01 0 0 0
103 1 8.3300000000000001e+00 2.7780000000000001e+01 2.3890000000000001e+01 0 0 0
104 1 1.0274999999999999e+01 2.7780000000000001e+01 2.5835000000000001e+01 0 0 0
105 1 1.0274999999999999e+01 2.9725000000000001e+01 2.3890000000000001e+01 0 0 0
106 1 1.4164999999999999e+01 6.3849999999999998e+00 2.0000000000000000e+01 0 0 0
107 1 1.2219999999999999e+01 1.0274999999999999e+01 1.4164999999999999e+01 0 0 0
108 1 1.4164999999999999e+01 8.3300000000000001e+00 1.4164999999999999e+01 0 0 0
109 1 1.4164999999999999e+01 1.0274999999999999e+01 1.2219999999999999e+01 0 0 0
110 1 1.2219999999999999e+01 8.3300000000000001e+00 1.6109999999999999e+01 0 0 0
111 2 2.3919999999999998e+01 2.5879999999999999e+01 1.8039999999999999e+01 0 0 0
112 1 1.4164999999999999e+01 8.3300000000000001e+00 1.8055000000000000e+01 0 0 0
113 2 2.3919999999999998e+01 2.3919999999999998e+01 1.6079999999999998e+01 0 0 0
114 1 1.2219999999999999e+01 8.3300000000000001e+00 2.0000000000000000e+01 0 0 0
115 2 2.5879999999999999e+01 2.3919999999999998e+01 1.4119999999999997e+01 0 0 0
116 1 1.4164999999999999e+01 8.3300000000000001e+00 2.1945000000000000e+01 0 0 0
117 2 2.3919999999999998e+01 2.5879999999999999e+01 1.4119999999999997e+01 0 0 0
118 1 1.2219999999999999e+01 8.3300000000000001e+00 2.3890000000000001e+01 0 0 0
119 1 1.2219999999999999e+01 1.0274999999999999e+01 2.5835000000000001e+01 0 0 0
120 1 1.4164999999999999e+01 8.3300000000000001e+00 2.5835000000000001e+01 0 0 0
121 2 2.3919999999999998e+01 2.3919999999999998e+01 1.2159999999999998e+01 0 0 0
122 1 1.4164999999999999e+01 1.0274999999999999e+01 2.7780000000000001e+01 0 0 0
123 1 1.2219999999999999e+01 1.4164999999999999e+01 1.0274999999999999e+01 0 0 0
124 1 1.4164999999999999e+01 1.2219999999999999e+01 1.0274999999999999e+01 0 0 0
125 1 1.4164999999999999e+01 1.4164999999999999e+01 8.3300000000000001e+00 0 0 0
126 1 1.2219999999999999e+01 1.2219999999999999e+01 1.2219999999999999e+01 0 0 0
127 2 2.5879999999999999e+01 2.1959999999999997e+01 2.7840000000000000e+01 0 0 0
128 2 2.3919999999999998e+01 2.0000000000000000e+01 2.7840000000000000e+01 0 0 0
129 2 2.5879999999999999e+01 2.1959999999999997e+01 2.3919999999999998e+01 0 0 0
130 2 2.5879999999999999e+01 2.0000000000000000e+01 2.5879999999999999e+01 0 0 0
131 2 2.3919999999999998e+01 2.1959999999999997e+01 2.5879999999999999e+01 0 0 0
132 2 2.3919999999999998e+01 2.0000000000000000e+01 2.3919999999999998e+01 0 0 0
133 2 2.5879999999999999e+01 2.1959999999999997e+01 2.0000000000000000e+01 0 0 0
134 2 2.5879999999999999e+01 2.0000000000000000e+01 2.1959999999999997e+01 0 0 0
135 2 2.3919999999999998e+01 2.1959999999999997e+01 2.1959999999999997e+01 0 0 0
136 2 2.3919999999999998e+01 2.0000000000000000e+01 2.0000000000000000e+01 0 0 0
137 2 2.5879999999999999e+01 2.1959999999999997e+01 1.6079999999999998e+01 0 0 0
138 2 2.5879999999999999e+01 2.0000000000000000e+01 1.8039999999999999e+01 0 0 0
139 2 2.3919999999999998e+01 2.1959999999999997e+01 1.8039999999999999e+01 0 0 0
140 2 2.3919999999999998e+01 2.0000000000000000e+01 1.6079999999999998e+01 0 0 0
141 2 2.5879999999999999e+01 2.1959999999999997e+01 1.2159999999999998e+01 0 0 0
142 1 1.2219999999999999e+01 1.2219999999999999e+01 2.7780000000000001e+01 0 0 0
143 1 1.2219999999999999e+01 1.4164999999999999e+01 2.9725000000000001e+01 0 0 0
144 1 1.4164999999999999e+01 1.2219999999999999e+01 2.9725000000000001e+01 0 0 0
145 2 2.5879999999999999e+01 2.0000000000000000e+01 1.4119999999999997e+01 0 0 0
146 1 1.4164999999999999e+01 1.4164999999999999e+01 3.1670000000000002e+01 0 0 0
147 1 1.2219999999999999e+01 1.6109999999999999e+01 8.3300000000000001e+00 0 0 0
148 2 2.3919999999999998e+01 2.1959999999999997e+01 1.4119999999999997e+01 0 0 0
149 2 2.3919999999999998e+01 2.0000000000000000e+01 1.2159999999999998e+01 0 0 0
150 1 1.4164999999999999e+01 1.8055000000000000e+01 8.3300000000000001e+00 0 0 0
151 2 2.5879999999999999e+01 1.8039999999999999e+01 2.7840000000000000e+01 0 0 0
152 2 2.3919999999999998e+01 1.6079999999999998e+01 2.7840000000000000e+01 0 0 0
153 2 2.5879999999999999e+01 1.8039999999999999e+01 2.3919999999999998e+01 0 0 0
154 2 2.5879999999999999e+01 1.6079999999999998e+01 2.5879999999999999e+01 0 0 0
155 2 2.3919999999999998e+01 1.8039999999999999e+01 2.5879999999999999e+01 0 0 0
156 2 2.3919999999999998e+01 1.6079999999999998e+01 2.3919999999999998e+01 0 0 0
157 2 2.5879999999999999e+01 1.8039999999999999e+01 2.0000000000000000e+01 0 0 0
158 2 2.5879999999999999e+01 1.6079999999999998e+01 2.1959999999999997e+01 0 0 0
159 2 2.3919999999999998e+01 1.8039999999999999e+01 2.1959999999999997e+01 0 0 0
160 2 2.3919999999999998e+01 1.6079999999999998e+01 2.0000000000000000e+01 0 0 0
161 2 2.5879999999999999e+01 1.8039999999999999e+01 1.6079999999999998e+01 0 0 0
162 2 2.5879999999999999e+01 1.6079999999999998e+01 1.8039999999999999e+01 0 0 0
163 2 2.3919999999999998e+01 1.8039999999999999e+01 1.8039999999999999e+01 0 0 0
164 2 2.3919999999999998e+01 1.6079999999999998e+01 1.6079999999999998e+01 0 0 0
165 2 2.5879999999999999e+01 1.8039999999999999e+01 1.2159999999999998e+01 0 0 0
166 2 2.5879999999999999e+01 1.6079999999999998e+01 1.4119999999999997e+01 0 0 0
167 2 2.3919999999999998e+01 1.8039999999999999e+01 1.4119999999999997e+01 0 0 0
168 2 2.3919999999999998e+01 1.6079999999999998e+01 1.2159999999999998e+01 0 0 0
169 2 2.5879999999999999e+01 1.4119999999999997e+01 2.3919999999999998e+01 0 0 0
170 2 2.3919999999999998e+01 1.4119999999999997e+01 2.5879999999999999e+01 0 0 0
171 1 1.2219999999999999e+01 1.6109999999999999e+01 3.1670000000000002e+01 0 0 0
172 1 1.4164999999999999e+01 1.8055000000000000e+01 3.1670000000000002e+01 0 0 0
173 1 1.4164999999999999e+01 2.0000000000000000e+01 6.3849999999999998e+00 0 0 0
174 1 1.2219999999999999e+01 2.0000000000000000e+01 8.3300000000000001e+00 0 0 0
175 2 2.3919999999999998e+01 1.2159999999999998e+01 2.3919999999999998e+01 0 0 0
176 2 2.5879999999999999e+01 1.4119999999999997e+01 2.0000000000000000e+01 0 0 0
177 1 1.4164999999999999e+01 2.1945000000000000e+01 8.3300000000000001e+00 0 0 0
178 2 2.5879999999999999e+01 1.2159999999999998e+01 2.1959999999999997e+01 0 0 0
179 2 2.3919999999999998e+01 1.4119999999999997e+01 2.1959999999999997e+01 0 0 0
180 2 2.3919999999999998e+01 1.2159999999999998e+01 2.0000000000000000e+01 0 0 0
181 2 2.5879999999999999e+01 1.4119999999999997e+01 1.6079999999999998e+01 0 0 0
182 2 2.5879999999999999e+01 1.2159999999999998e+01 1.8039999999999999e+01 0 0 0
183 2 2.3919999999999998e+01 1.4119999999999997e+01 1.8039999999999999e+01 0 0 0
184 2 2.3919999999999998e+01 1.2159999999999998e+01 1.6079999999999998e+01 0 0 0
185 2 2.3919999999999998e+01 1.4119999999999997e+01 1.4119999999999997e+01 0 0 0
186 2 2.1959999999999997e+01 2.7840000000000000e+01 2.5879999999999999e+01 0 0 0
187 2 2.0000000000000000e+01 2.7840000000000000e+01 2.3919999999999998e+01 0 0 0
188 2 2.1959999999999997e+01 2.9800000000000001e+01 2.0000000000000000e+01 0 0 0
189 2 2.1959999999999997e+01 2.7840000000000000e+01 2.1959999999999997e+01 0 0 0
190 2 2.0000000000000000e+01 2.9800000000000001e+01 2.1959999999999997e+01 0 0 0
191 2 2.0000000000000000e+01 2.7840000000000000e+01 2.0000000000000000e+01 0 0 0
192 2 2.1959999999999997e+01 2.7840000000000000e+01 1.8039999999999999e+01 0 0 0
193 2 2.0000000000000000e+01 2.9800000000000001e+01 1.8039999999999999e+01 0 0 0
194 2 2.0000000000000000e+01 2.7840000000000000e+01 1.6079999999999998e+01 0 0 0
195 2 2.1959999999999997e+01 2.7840000000000000e+01 1.4119999999999997e+01 0 0 0
196 2 2.1959999999999997e+01 2.5879999999999999e+01 2.7840000000000000e+01 0 0 0
197 2 2.0000000000000000e+01 2.3919999999999998e+01 2.7840000000000000e+01 0 0 0
198 1 1.2219999999999999e+01 2.0000000000000000e+01 3.1670000000000002e+01 0 0 0
199 1 1.4164999999999999e+01 2.0000000000000000e+01 3.3615000000000002e+01 0 0 0
200 1 1.4164999999999999e+01 2.1945000000000000e+01 3.1670000000000002e+01 0 0 0
201 1 1.2219999999999999e+01 2.3890000000000001e+01 8.3300000000000001e+00 0 0 0
202 1 1.2219999999999999e+01 2.5835000000000001e+01 1.0274999999999999e+01 0 0 0
203 2 2.1959999999999997e+01 2.5879999999999999e+01 2.3919999999999998e+01 0 0 0
204 1 1.4164999999999999e+01 2.5835000000000001e+01 8.3300000000000001e+00 0 0 0
205 2 2.1959999999999997e+01 2.3919999999999998e+01 2.5879999999999999e+01 0 0 0
206 2 2.0000000000000000e+01 2.5879999999999999e+01 2.5879999999999999e+01 0 0 0
207 2 2.0000000000000000e+01 2.3919999999999998e+01 2.3919999999999998e+01 0 0 0
208 2 2.1959999999999997e+01 2.5879999999999999e+01 2.0000000000000000e+01 0 0 0
209 2 2.1959999999999997e+01 2.3919999999999998e+01 2.1959999999999997e+01 0 0 0
210 2 2.0000000000000000e+01 2.5879999999999999e+01 2.1959999999999997e+01 0 0 0
211 2 2.0000000000000000e+01 2.3919999999999998e+01 2.0000000000000000e+01 0 0 0
212 2 2.1959999999999997e+01 2.5879999999999999e+01 1.6079999999999998e+01 0 0 0
213 2 2.1959999999999997e+01 2.3919999999999998e+01 1.8039999999999999e+01 0 0 0
214 2 2.0000000000000000e+01 2.5879999999999999e+01 1.8039999999999999e+01 0 0 0
215 2 2.0000000000000000e+01 2.3919999999999998e+01 1.6079999999999998e+01 0 0 0
216 2 2.1959999999999997e+01 2.5879999999999999e+01 1.2159999999999998e+01 0 0 0
217 2 2.1959999999999997e+01 2.3919999999999998e+01 1.4119999999999997e+01 0 0 0
218 2 2.0000000000000000e+01 2.5879999999999999e+01 1.4119999999999997e+01 0 0 0
219 2 2.0000000000000000e+01 2.3919999999999998e+01 1.2159999999999998e+01 0 0 0
220 2 2.1959999999999997e+01 2.1959999999999997e+01 2.7840000000000000e+01 0 0 0
221 2 2.1959999999999997e+01 2.0000000000000000e+01 2.9800000000000001e+01 0 0 0
222 1 1.2219999999999999e+01 2.5835000000000001e+01 2.9725000000000001e+01 0 0 0
223 2 2.0000000000000000e+01 2.1959999999999997e+01 2.9800000000000001e+01 0 0 0
224 2 2.0000000000000000e+01 2.0000000000000000e+01 2.7840000000000000e+01 0 0 0
225 1 1.2219999999999999e+01 2.3890000000000001e+01 3.1670000000000002e+01 0 0 0
226 1 1.4164999999999999e+01 2.5835000000000001e+01 3.1670000000000002e+01 0 0 0
227 1 1.4164999999999999e+01 2.7780000000000001e+01 1.0274999999999999e+01 0 0 0
228 1 1.2219999999999999e+01 2.7780000000000001e+01 1.2219999999999999e+01 0 0 0
229 1 1.2219999999999999e+01 2.9725000000000001e+01 1.4164999999999999e+01 0 0 0
230 2 2.1959999999999997e+01 2.1959999999999997e+01 2.3919999999999998e+01 0 0 0
231 1 1.4164999999999999e+01 2.9725000000000001e+01 1.2219999999999999e+01 0 0 0
232 2 2.1959999999999997e+01 2.0000000000000000e+01 2.5879999999999999e+01 0 0 0
233 2 2.0000000000000000e+01 2.1959999999999997e+01 2.5879999999999999e+01 0 0 0
234 2 2.0000000000000000e+01 2.0000000000000000e+01 2.3919999999999998e+01 0 0 0
235 2 2.1959999999999997e+01 2.1959999999999997e+01 2.0000000000000000e+01 0 0 0
236 2 2.1959999999999997e+01 2.0000000000000000e+01 2.1959999999999997e+01 0 0 0
237 2 2.0000000000000000e+01 2.1959999999999997e+01 2.1959999999999997e+01 0 0 0
238 2 2.0000000000000000e+01 2.0000000000000000e+01 2.0000000000000000e+01 0 0 0
239 2 2.1959999999999997e+01 2.1959999999999997e+01 1.6079999999999998e+01 0 0 0
240 2 2.1959999999999997e+01 2.0000000000000000e+01 1.8039999999999999e+01 0 0 0
241 1 1.2219999999999999e+01 2.9725000000000001e+01 2.5835000000000001e+01 0 0 0
242 2 2.0000000000000000e+01 2.1959999999999997e+01 1.8039999999999999e+01 0 0 0
243 2 2.0000000000000000e+01 2.0000000000000000e+01 1.6079999999999998e+01 0 0 0
244 1 1.2219999999999999e+01 2.7780000000000001e+01 2.7780000000000001e+01 0 0 0
245 1 1.4164999999999999e+01 2.7780000000000001e+01 2.9725000000000001e+01 0 0 0
246 1 1.4164999999999999e+01 2.9725000000000001e+01 2.7780000000000001e+01 0 0 0
247 1 1.4164999999999999e+01 3.1670000000000002e+01 1.4164999999999999e+01 0 0 0
248 1 1.2219999999999999e+01 3.1670000000000002e+01 1.6109999999999999e+01 0 0 0
249 1 1.4164999999999999e+01 3.1670000000000002e+01 1.8055000000000000e+01 0 0 0
250 1 1.2219999999999999e+01 3.1670000000000002e+01 2.0000000000000000e+01 0 0 0
251 1 1.4164999999999999e+01 3.1670000000000002e+01 2.1945000000000000e+01 0 0 0
252 1 1.4164999999999999e+01 3.3615000000000002e+01 2.0000000000000000e+01 0 0 0
253 1 1.2219999999999999e+01 3.1670000000000002e+01 2.3890000000000001e+01 0 0 0
254 1 1.4164999999999999e+01 3.1670000000000002e+01 2.5835000000000001e+01 0 0 0
255 1 1.6109999999999999e+01 6.3849999999999998e+00 1.8055000000000000e+01 0 0 0
256 1 1.8055000000000000e+01 6.3849999999999998e+00 1.6109999999999999e+01 0 0 0
257 1 1.6109999999999999e+01 6.3849999999999998e+00 2.1945000000000000e+01 0 0 0
258 1 1.8055000000000000e+01 6.3849999999999998e+00 2.0000000000000000e+01 0 0 0
259 1 1.8055000000000000e+01 6.3849999999999998e+00 2.3890000000000001e+01 0 0 0
260 1 1.6109999999999999e+01 1.0274999999999999e+01 1.0274999999999999e+01 0 0 0
261 1 1.6109999999999999e+01 8.3300000000000001e+00 1.2219999999999999e+01 0 0 0
262 2 2.1959999999999997e+01 2.1959999999999997e+01 1.2159999999999998e+01 0 0 0
263 1 1.8055000000000000e+01 8.3300000000000001e+00 1.4164999999999999e+01 0 0 0
264 2 2.1959999999999997e+01 2.0000000000000000e+01 1.4119999999999997e+01 0 0 0
265 1 1.6109999999999999e+01 8.3300000000000001e+00 1.6109999999999999e+01 0 0 0
266 2 2.0000000000000000e+01 2.1959999999999997e+01 1.4119999999999997e+01 0 0 0
267 2 2.0000000000000000e+01 2.0000000000000000e+01 1.2159999999999998e+01 0 0 0
268 2 2.1959999999999997e+01 2.0000000000000000e+01 1.0199999999999999e+01 0 0 0
269 2 2.0000000000000000e+01 2.1959999999999997e+01 1.0199999999999999e+01 0 0 0
270 2 2.1959999999999997e+01 1.8039999999999999e+01 2.7840000000000000e+01 0 0 0
271 2 2.0000000000000000e+01 1.8039999999999999e+01 2.9800000000000001e+01 0 0 0
272 2 2.0000000000000000e+01 1.6079999999999998e+01 2.7840000000000000e+01 0 0 0
273 1 1.6109999999999999e+01 8.3300000000000001e+00 2.3890000000000001e+01 0 0 0
274 2 2.1959999999999997e+01 1.8039999999999999e+01 2.3919999999999998e+01 0 0 0
275 1 1.8055000000000000e+01 8.3300000000000001e+00 2.5835000000000001e+01 0 0 0
276 2 2.1959999999999997e+01 1.6079999999999998e+01 2.5879999999999999e+01 0 0 0
277 1 1.6109999999999999e+01 8.3300000000000001e+00 2.7780000000000001e+01 0 0 0
278 1 1.6109999999999999e+01 1.0274999999999999e+01 2.9725000000000001e+01 0 0 0
279 2 2.0000000000000000e+01 1.8039999999999999e+01 2.5879999999999999e+01 0 0 0
280 1 1.6109999999999999e+01 1.2219999999999999e+01 8.3300000000000001e+00 0 0 0
281 2 2.0000000000000000e+01 1.6079999999999998e+01 2.3919999999999998e+01 0 0 0
282 2 2.1959999999999997e+01 1.8039999999999999e+01 2.0000000000000000e+01 0 0 0
283 1 1.8055000000000000e+01 1.4164999999999999e+01 8.3300000000000001e+00 0 0 0
284 2 2.1959999999999997e+01 1.6079999999999998e+01 2.1959999999999997e+01 0 0 0
285 2 2.0000000000000000e+01 1.8039999999999999e+01 2.1959999999999997e+01 0 0 0
286 2 2.0000000000000000e+01 1.6079999999999998e+01 2.0000000000000000e+01 0 0 0
287 2 2.1959999999999997e+01 1.8039999999999999e+01 1.6079999999999998e+01 0 0 0
288 2 2.1959999999999997e+01 1.6079999999999998e+01 1.8039999999999999e+01 0 0 0
289 2 2.0000000000000000e+01 1.8039999999999999e+01 1.8039999999999999e+01 0 0 0
290 2 2.0000000000000000e+01 1.6079999999999998e+01 1.6079999999999998e+01 0 0 0
291 2 2.1959999999999997e+01 1.8039999999999999e+01 1.2159999999999998e+01 0 0 0
292 2 2.1959999999999997e+01 1.6079999999999998e+01 1.4119999999999997e+01 0 0 0
293 2 2.0000000000000000e+01 1.8039999999999999e+01 1.4119999999999997e+01 0 0 0
294 2 2.0000000000000000e+01 1.6079999999999998e+01 1.2159999999999998e+01 0 0 0
295 2 2.0000000000000000e+01 1.8039999999999999e+01 1.0199999999999999e+01 0 0 0
296 2 2.1959999999999997e+01 1.4119999999999997e+01 2.7840000000000000e+01 0 0 0
297 2 2.1959999999999997e+01 1.4119999999999997e+01 2.3919999999999998e+01 0 0 0
298 2 2.1959999999999997e+01 1.2159999999999998e+01 2.5879999999999999e+01 0 0 0
299 2 2.0000000000000000e+01 1.4119999999999997e+01 2.5879999999999999e+01 0 0 0
300 2 2.0000000000000000e+01 1.2159999999999998e+01 2.3919999999999998e+01 0 0 0
301 2 2.1959999999999997e+01 1.4119999999999997e+01 2.0000000000000000e+01 0 0 0
302 2 2.1959999999999997e+01 1.2159999999999998e+01 2.1959999999999997e+01 0 0 0
303 2 2.0000000000000000e+01 1.4119999999999997e+01 2.1959999999999997e+01 0 0 0
304 1 1.6109999999999999e+01 1.2219999999999999e+01 3.1670000000000002e+01 0 0 0
305 1 1.8055000000000000e+01 1.4164999999999999e+01 3.1670000000000002e+01 0 0 0
306 1 1.6109999999999999e+01 1.8055000000000000e+01 6.3849999999999998e+00 0 0 0
307 1 1.8055000000000000e+01 1.6109999999999999e+01 6.3849999999999998e+00 0 0 0
308 1 1.6109999999999999e+01 1.6109999999999999e+01 8.3300000000000001e+00 0 0 0
309 2 2.0000000000000000e+01 1.2159999999999998e+01 2.0000000000000000e+01 0 0 0
310 2 2.1959999999999997e+01 1.4119999999999997e+01 1.6079999999999998e+01 0 0 0
311 2 2.1959999999999997e+01 1.2159999999999998e+01 1.8039999999999999e+01 0 0 0
312 2 2.0000000000000000e+01 1.4119999999999997e+01 1.8039999999999999e+01 0 0 0
313 2 2.0000000000000000e+01 1.2159999999999998e+01 1.6079999999999998e+01 0 0 0
314 2 2.1959999999999997e+01 1.4119999999999997e+01 1.2159999999999998e+01 0 0 0
315 2 2.1959999999999997e+01 1.2159999999999998e+01 1.4119999999999997e+01 0 0 0
316 2 2.0000000000000000e+01 1.4119999999999997e+01 1.4119999999999997e+01 0 0 0
317 2 2.1959999999999997e+01 1.0199999999999999e+01 2.0000000000000000e+01 0 0 0
318 2 2.0000000000000000e+01 1.0199999999999999e+01 2.1959999999999997e+01 0 0 0
319 2 2.0000000000000000e+01 1.0199999999999999e+01 1.8039999999999999e+01 0 0 0
320 2 1.8039999999999999e+01 2.7840000000000000e+01 2.5879999999999999e+01 0 0 0
321 2 1.6079999999999998e+01 2.7840000000000000e+01 2.3919999999999998e+01 0 0 0
322 2 1.8039999999999999e+01 2.9800000000000001e+01 2.0000000000000000e+01 0 0 0
323 2 1.8039999999999999e+01 2.7840000000000000e+01 2.1959999999999997e+01 0 0 0
324 2 1.6079999999999998e+01 2.7840000000000000e+01 2.0000000000000000e+01 0 0 0
325 2 1.8039999999999999e+01 2.7840000000000000e+01 1.8039999999999999e+01 0 0 0
326 2 1.6079999999999998e+01 2.7840000000000000e+01 1.6079999999999998e+01 0 0 0
327 2 1.8039999999999999e+01 2.7840000000000000e+01 1.4119999999999997e+01 0 0 0
328 2 1.8039999999999999e+01 2.5879999999999999e+01 2.7840000000000000e+01 0 0 0
329 2 1.6079999999999998e+01 2.3919999999999998e+01 2.7840000000000000e+01 0 0 0
330 2 1.8039999999999999e+01 2.5879999999999999e+01 2.3919999999999998e+01 0 0 0
331 2 1.8039999999999999e+01 2.3919999999999998e+01 2.5879999999999999e+01 0 0 0
332 1 1.6109999999999999e+01 1.6109999999999999e+01 3.1670000000000002e+01 0 0 0
333 1 1.6109999999999999e+01 1.8055000000000000e+01 3.3615000000000002e+01 0 0 0
334 1 1.8055000000000000e+01 1.6109999999999999e+01 3.3615000000000002e+01 0 0 0
335 2 1.6079999999999998e+01 2.5879999999999999e+01 2.5879999999999999e+01 0 0 0
336 1 1.6109999999999999e+01 2.1945000000000000e+01 6.3849999999999998e+00 0 0 0
337 1 1.8055000000000000e+01 2.0000000000000000e+01 6.3849999999999998e+00 0 0 0
338 2 1.6079999999999998e+01 2.3919999999999998e+01 2.3919999999999998e+01 0 0 0
339 2 1.8039999999999999e+01 2.5879999999999999e+01 2.0000000000000000e+01 0 0 0
340 2 1.8039999999999999e+01 2.3919999999999998e+01 2.1959999999999997e+01 0 0 0
341 2 1.6079999999999998e+01 2.5879999999999999e+01 2.1959999999999997e+01 0 0 0
342 2 1.6079999999999998e+01 2.3919999999999998e+01 2.0000000000000000e+01 0 0 0
343 2 1.8039999999999999e+01 2.5879999999999999e+01 1.6079999999999998e+01 0 0 0
344 2 1.8039999999999999e+01 2.3919999999999998e+01 1.8039999999999999e+01 0 0 0
345 2 1.6079999999999998e+01 2.5879999999999999e+01 1.8039999999999999e+01 0 0 0
346 2 1.6079999999999998e+01 2.3919999999999998e+01 1.6079999999999998e+01 0 0 0
347 2 1.8039999999999999e+01 2.5879999999999999e+01 1.2159999999999998e+01 0 0 0
348 2 1.8039999999999999e+01 2.3919999999999998e+01 1.4119999999999997e+01 0 0 0
349 2 1.6079999999999998e+01 2.5879999999999999e+01 1.4119999999999997e+01 0 0 0
350 2 1.6079999999999998e+01 2.3919999999999998e+01 1.2159999999999998e+01 0 0 0
351 2 1.8039999999999999e+01 2.1959999999999997e+01 2.7840000000000000e+01 0 0 0
352 2 1.8039999999999999e+01 2.0000000000000000e+01 2.9800000000000001e+01 0 0 0
353 2 1.6079999999999998e+01 2.0000000000000000e+01 2.7840000000000000e+01 0 0 0
354 2 1.8039999999999999e+01 2.1959999999999997e+01 2.3919999999999998e+01 0 0 0
355 2 1.8039999999999999e+01 2.0000000000000000e+01 2.5879999999999999e+01 0 0 0
356 2 1.6079999999999998e+01 2.1959999999999997e+01 2.5879999999999999e+01 0 0 0
357 2 1.6079999999999998e+01 2.0000000000000000e+01 2.3919999999999998e+01 0 0 0
358 2 1.8039999999999999e+01 2.1959999999999997e+01 2.0000000000000000e+01 0 0 0
359 2 1.8039999999999999e+01 2.0000000000000000e+01 2.1959999999999997e+01 0 0 0
360 2 1.6079999999999998e+01 2.1959999999999997e+01 2.1959999999999997e+01 0 0 0
361 2 1.6079999999999998e+01 2.0000000000000000e+01 2.0000000000000000e+01 0 0 0
362 2 1.8039999999999999e+01 2.1959999999999997e+01 1.6079999999999998e+01 0 0 0
363 1 1.6109999999999999e+01 2.1945000000000000e+01 3.3615000000000002e+01 0 0 0
364 1 1.8055000000000000e+01 2.0000000000000000e+01 3.3615000000000002e+01 0 0 0
365 2 1.8039999999999999e+01 2.0000000000000000e+01 1.8039999999999999e+01 0 0 0
366 1 1.8055000000000000e+01 2.3890000000000001e+01 6.3849999999999998e+00 0 0 0
367 1 1.6109999999999999e+01 2.3890000000000001e+01 8.3300000000000001e+00 0 0 0
368 2 1.6079999999999998e+01 2.1959999999999997e+01 1.8039999999999999e+01 0 0 0