/home/bill-peng/Projects/BNPs/BNP/L10/AuPt20SPL10.lmp (written by ASE) 

225 	 atoms 
2  atom types
0.0                      40  xlo xhi
0.0                      40  ylo yhi
0.0                      40  zlo zhi


Atoms 

     1   1                  13.865                  13.865                   15.91
     2   1                  13.865                  13.865                      20
     3   1                  13.865                  13.865                   24.09
     4   2                  13.865                   15.91                  13.865
     5   1                   11.82      17.954999999999998      17.954999999999998
     6   2                  13.865                   15.91      17.954999999999998
     7   1                  13.865      17.954999999999998                   15.91
     8   2                   11.82                   15.91                      20
     9   1                   11.82      17.954999999999998      22.045000000000002
    10   2                  13.865                   15.91      22.045000000000002
    11   1                  13.865      17.954999999999998                      20
    12   2                  13.865                   15.91      26.135000000000002
    13   1                  13.865      17.954999999999998                   24.09
    14   2                  13.865                      20                  13.865
    15   2                   11.82                      20                   15.91
    16   1                   11.82      22.045000000000002      17.954999999999998
    17   2                  13.865                      20      17.954999999999998
    18   1                  13.865      22.045000000000002                   15.91
    19   2                   11.82                      20                      20
    20   1                   11.82      22.045000000000002      22.045000000000002
    21   2                  13.865                      20      22.045000000000002
    22   1                  13.865      22.045000000000002                      20
    23   2                   11.82                      20                   24.09
    24   2                  13.865                      20      26.135000000000002
    25   1                  13.865      22.045000000000002                   24.09
    26   2                  13.865                   24.09                  13.865
    27   2                  13.865                   24.09      17.954999999999998
    28   1                  13.865      26.135000000000002                   15.91
    29   2                   11.82                   24.09                      20
    30   2                  13.865                   24.09      22.045000000000002
    31   1                  13.865      26.135000000000002                      20
    32   2                  13.865                   24.09      26.135000000000002
    33   1                  13.865      26.135000000000002                   24.09
    34   1                   15.91                  13.865                  13.865
    35   1                   15.91                  13.865      17.954999999999998
    36   2      17.954999999999998                   11.82      17.954999999999998
    37   1      17.954999999999998                  13.865                   15.91
    38   2                   15.91                   11.82                      20
    39   1                   15.91                  13.865      22.045000000000002
    40   2      17.954999999999998                   11.82      22.045000000000002
    41   1      17.954999999999998                  13.865                      20
    42   1                   15.91                  13.865      26.135000000000002
    43   1      17.954999999999998                  13.865                   24.09
    44   1                   15.91      17.954999999999998                  13.865
    45   2      17.954999999999998                   15.91                  13.865
    46   1      17.954999999999998      17.954999999999998                   11.82
    47   2                   15.91                   15.91                   15.91
    48   1                   15.91      17.954999999999998      17.954999999999998
    49   2      17.954999999999998                   15.91      17.954999999999998
    50   1      17.954999999999998      17.954999999999998                   15.91
    51   2                   15.91                   15.91                      20
    52   1                   15.91      17.954999999999998      22.045000000000002
    53   2      17.954999999999998                   15.91      22.045000000000002
    54   1      17.954999999999998      17.954999999999998                      20
    55   2                   15.91                   15.91                   24.09
    56   1                   15.91      17.954999999999998      26.135000000000002
    57   2      17.954999999999998                   15.91      26.135000000000002
    58   1      17.954999999999998      17.954999999999998                   24.09
    59   1      17.954999999999998      17.954999999999998                   28.18
    60   2                   15.91                      20                   11.82
    61   1                   15.91      22.045000000000002                  13.865
    62   2      17.954999999999998                      20                  13.865
    63   1      17.954999999999998      22.045000000000002                   11.82
    64   2                   15.91                      20                   15.91
    65   1                   15.91      22.045000000000002      17.954999999999998
    66   2      17.954999999999998                      20      17.954999999999998
    67   1      17.954999999999998      22.045000000000002                   15.91
    68   2                   15.91                      20                      20
    69   1                   15.91      22.045000000000002      22.045000000000002
    70   2      17.954999999999998                      20      22.045000000000002
    71   1      17.954999999999998      22.045000000000002                      20
    72   2                   15.91                      20                   24.09
    73   1                   15.91      22.045000000000002      26.135000000000002
    74   2      17.954999999999998                      20      26.135000000000002
    75   1      17.954999999999998      22.045000000000002                   24.09
    76   2                   15.91                      20                   28.18
    77   1      17.954999999999998      22.045000000000002                   28.18
    78   1                   15.91      26.135000000000002                  13.865
    79   2      17.954999999999998                   24.09                  13.865
    80   2                   15.91                   24.09                   15.91
    81   1                   15.91      26.135000000000002      17.954999999999998
    82   2      17.954999999999998                   24.09      17.954999999999998
    83   1      17.954999999999998      26.135000000000002                   15.91
    84   2                   15.91                   24.09                      20
    85   1                   15.91      26.135000000000002      22.045000000000002
    86   2      17.954999999999998                   24.09      22.045000000000002
    87   1      17.954999999999998      26.135000000000002                      20
    88   2                   15.91                   24.09                   24.09
    89   1                   15.91      26.135000000000002      26.135000000000002
    90   2      17.954999999999998                   24.09      26.135000000000002
    91   1      17.954999999999998      26.135000000000002                   24.09
    92   2      17.954999999999998                   28.18      17.954999999999998
    93   2                   15.91                   28.18                      20
    94   2      17.954999999999998                   28.18      22.045000000000002
    95   1                      20                  13.865                  13.865
    96   2                      20                   11.82                   15.91
    97   1                      20                  13.865      17.954999999999998
    98   2      22.045000000000002                   11.82      17.954999999999998
    99   1      22.045000000000002                  13.865                   15.91
   100   2                      20                   11.82                      20
   101   1                      20                  13.865      22.045000000000002
   102   2      22.045000000000002                   11.82      22.045000000000002
   103   1      22.045000000000002                  13.865                      20
   104   2                      20                   11.82                   24.09
   105   1                      20                  13.865      26.135000000000002
   106   1      22.045000000000002                  13.865                   24.09
   107   2                      20                   15.91                   11.82
   108   1                      20      17.954999999999998                  13.865
   109   2      22.045000000000002                   15.91                  13.865
   110   1      22.045000000000002      17.954999999999998                   11.82
   111   2                      20                   15.91                   15.91
   112   1                      20      17.954999999999998      17.954999999999998
   113   2      22.045000000000002                   15.91      17.954999999999998
   114   1      22.045000000000002      17.954999999999998                   15.91
   115   2                      20                   15.91                      20
   116   1                      20      17.954999999999998      22.045000000000002
   117   2      22.045000000000002                   15.91      22.045000000000002
   118   1      22.045000000000002      17.954999999999998                      20
   119   2                      20                   15.91                   24.09
   120   1                      20      17.954999999999998      26.135000000000002
   121   2      22.045000000000002                   15.91      26.135000000000002
   122   1      22.045000000000002      17.954999999999998                   24.09
   123   2                      20                   15.91                   28.18
   124   1      22.045000000000002      17.954999999999998                   28.18
   125   2                      20                      20                   11.82
   126   1                      20      22.045000000000002                  13.865
   127   2      22.045000000000002                      20                  13.865
   128   1      22.045000000000002      22.045000000000002                   11.82
   129   2                      20                      20                   15.91
   130   1                      20      22.045000000000002      17.954999999999998
   131   2      22.045000000000002                      20      17.954999999999998
   132   1      22.045000000000002      22.045000000000002                   15.91
   133   2                      20                      20                      20
   134   1                      20      22.045000000000002      22.045000000000002
   135   2      22.045000000000002                      20      22.045000000000002
   136   1      22.045000000000002      22.045000000000002                      20
   137   2                      20                      20                   24.09
   138   1                      20      22.045000000000002      26.135000000000002
   139   2      22.045000000000002                      20      26.135000000000002
   140   1      22.045000000000002      22.045000000000002                   24.09
   141   2                      20                      20                   28.18
   142   1      22.045000000000002      22.045000000000002                   28.18
   143   2                      20                   24.09                   11.82
   144   1                      20      26.135000000000002                  13.865
   145   2      22.045000000000002                   24.09                  13.865
   146   2                      20                   24.09                   15.91
   147   1                      20      26.135000000000002      17.954999999999998
   148   2      22.045000000000002                   24.09      17.954999999999998
   149   1      22.045000000000002      26.135000000000002                   15.91
   150   2                      20                   24.09                      20
   151   1                      20      26.135000000000002      22.045000000000002
   152   2      22.045000000000002                   24.09      22.045000000000002
   153   1      22.045000000000002      26.135000000000002                      20
   154   2                      20                   24.09                   24.09
   155   1                      20      26.135000000000002      26.135000000000002
   156   2      22.045000000000002                   24.09      26.135000000000002
   157   1      22.045000000000002      26.135000000000002                   24.09
   158   2                      20                   24.09                   28.18
   159   2                      20                   28.18                   15.91
   160   2      22.045000000000002                   28.18      17.954999999999998
   161   2                      20                   28.18                      20
   162   2      22.045000000000002                   28.18      22.045000000000002
   163   2                      20                   28.18                   24.09
   164   1                   24.09                  13.865                  13.865
   165   1                   24.09                  13.865      17.954999999999998
   166   1      26.135000000000002                  13.865                   15.91
   167   2                   24.09                   11.82                      20
   168   1                   24.09                  13.865      22.045000000000002
   169   1      26.135000000000002                  13.865                      20
   170   1                   24.09                  13.865      26.135000000000002
   171   1      26.135000000000002                  13.865                   24.09
   172   1                   24.09      17.954999999999998                  13.865
   173   2      26.135000000000002                   15.91                  13.865
   174   2                   24.09                   15.91                   15.91
   175   1                   24.09      17.954999999999998      17.954999999999998
   176   2      26.135000000000002                   15.91      17.954999999999998
   177   1      26.135000000000002      17.954999999999998                   15.91
   178   2                   24.09                   15.91                      20
   179   1                   24.09      17.954999999999998      22.045000000000002
   180   2      26.135000000000002                   15.91      22.045000000000002
   181   1      26.135000000000002      17.954999999999998                      20
   182   2                   24.09                   15.91                   24.09
   183   1                   24.09      17.954999999999998      26.135000000000002
   184   2      26.135000000000002                   15.91      26.135000000000002
   185   1      26.135000000000002      17.954999999999998                   24.09
   186   2                   24.09                      20                   11.82
   187   1                   24.09      22.045000000000002                  13.865
   188   2      26.135000000000002                      20                  13.865
   189   2                   24.09                      20                   15.91
   190   1                   24.09      22.045000000000002      17.954999999999998
   191   2      26.135000000000002                      20      17.954999999999998
   192   1      26.135000000000002      22.045000000000002                   15.91
   193   2                   24.09                      20                      20
   194   1                   24.09      22.045000000000002      22.045000000000002
   195   2      26.135000000000002                      20      22.045000000000002
   196   1      26.135000000000002      22.045000000000002                      20
   197   2                   24.09                      20                   24.09
   198   1                   24.09      22.045000000000002      26.135000000000002
   199   2      26.135000000000002                      20      26.135000000000002
   200   1      26.135000000000002      22.045000000000002                   24.09
   201   2                   24.09                      20                   28.18
   202   1                   24.09      26.135000000000002                  13.865
   203   2      26.135000000000002                   24.09                  13.865
   204   2                   24.09                   24.09                   15.91
   205   1                   24.09      26.135000000000002      17.954999999999998
   206   2      26.135000000000002                   24.09      17.954999999999998
   207   1      26.135000000000002      26.135000000000002                   15.91
   208   2                   24.09                   24.09                      20
   209   1                   24.09      26.135000000000002      22.045000000000002
   210   2      26.135000000000002                   24.09      22.045000000000002
   211   1      26.135000000000002      26.135000000000002                      20
   212   2                   24.09                   24.09                   24.09
   213   1                   24.09      26.135000000000002      26.135000000000002
   214   2      26.135000000000002                   24.09      26.135000000000002
   215   1      26.135000000000002      26.135000000000002                   24.09
   216   2                   24.09                   28.18                      20
   217   1                   28.18      17.954999999999998      17.954999999999998
   218   2                   28.18                   15.91                      20
   219   1                   28.18      17.954999999999998      22.045000000000002
   220   2                   28.18                      20                   15.91
   221   1                   28.18      22.045000000000002      17.954999999999998
   222   2                   28.18                      20                      20
   223   1                   28.18      22.045000000000002      22.045000000000002
   224   2                   28.18                      20                   24.09
   225   2                   28.18                   24.09                      20
