/home/bill-peng/Projects/BNPs/TNP/RAL/AuPtPd30SP25RAL425RAL2.lmp (written by ASE) 

791 	 atoms 
3  atom types
0.0                      40  xlo xhi
0.0                      40  ylo yhi
0.0                      40  zlo zhi


Atoms 

     1   3      5.6850000000000005      17.954999999999998                      20
     2   1      5.6850000000000005                      20      17.954999999999998
     3   3      5.6850000000000005                      20      22.045000000000002
     4   1      5.6850000000000005      22.045000000000002                      20
     5   1      9.7750000000000004      9.7750000000000004                      20
     6   1      9.7750000000000004                   11.82                  13.865
     7   3      9.7750000000000004                  13.865                   11.82
     8   3      7.7300000000000004                  13.865      17.954999999999998
     9   2      9.7750000000000004                   11.82      17.954999999999998
    10   1      9.7750000000000004                  13.865                   15.91
    11   1      7.7300000000000004                   11.82                      20
    12   1      7.7300000000000004                  13.865      22.045000000000002
    13   3      9.7750000000000004                   11.82      22.045000000000002
    14   1      9.7750000000000004                  13.865                      20
    15   1      9.7750000000000004                   11.82      26.134999999999998
    16   2      9.7750000000000004                  13.865                   24.09
    17   2      9.7750000000000004                  13.865                   28.18
    18   1      7.7300000000000004      17.954999999999998                  13.865
    19   2      9.7750000000000004                   15.91                  13.865
    20   1      9.7750000000000004      17.954999999999998                   11.82
    21   1      7.7300000000000004                   15.91                   15.91
    22   3      7.7300000000000004      17.954999999999998      17.954999999999998
    23   3      9.7750000000000004                   15.91      17.954999999999998
    24   2      9.7750000000000004      17.954999999999998                   15.91
    25   2      7.7300000000000004                   15.91                      20
    26   1      7.7300000000000004      17.954999999999998      22.045000000000002
    27   1      9.7750000000000004                   15.91      22.045000000000002
    28   1      9.7750000000000004      17.954999999999998                      20
    29   1      7.7300000000000004                   15.91                   24.09
    30   2      7.7300000000000004      17.954999999999998      26.134999999999998
    31   1      9.7750000000000004                   15.91      26.134999999999998
    32   2      9.7750000000000004      17.954999999999998                   24.09
    33   1      9.7750000000000004      17.954999999999998                   28.18
    34   1      9.7750000000000004                      20      9.7750000000000004
    35   1      7.7300000000000004                      20                   11.82
    36   1      7.7300000000000004      22.045000000000002                  13.865
    37   1      9.7750000000000004                      20                  13.865
    38   2      9.7750000000000004      22.045000000000002                   11.82
    39   3      7.7300000000000004                      20                   15.91
    40   1      7.7300000000000004      22.045000000000002      17.954999999999998
    41   2      9.7750000000000004                      20      17.954999999999998
    42   1      9.7750000000000004      22.045000000000002                   15.91
    43   3      7.7300000000000004                      20                      20
    44   3      7.7300000000000004      22.045000000000002      22.045000000000002
    45   1      9.7750000000000004                      20      22.045000000000002
    46   1      9.7750000000000004      22.045000000000002                      20
    47   3      7.7300000000000004                      20                   24.09
    48   2      7.7300000000000004      22.045000000000002      26.134999999999998
    49   1      9.7750000000000004                      20      26.134999999999998
    50   3      9.7750000000000004      22.045000000000002                   24.09
    51   3      7.7300000000000004                      20                   28.18
    52   1      9.7750000000000004                      20      30.225000000000001
    53   2      9.7750000000000004      22.045000000000002                   28.18
    54   2      9.7750000000000004                   24.09                  13.865
    55   1      9.7750000000000004      26.134999999999998                   11.82
    56   1      7.7300000000000004                   24.09                   15.91
    57   3      7.7300000000000004      26.134999999999998      17.954999999999998
    58   1      9.7750000000000004                   24.09      17.954999999999998
    59   2      9.7750000000000004      26.134999999999998                   15.91
    60   1      7.7300000000000004                   24.09                      20
    61   1      7.7300000000000004      26.134999999999998      22.045000000000002
    62   1      9.7750000000000004                   24.09      22.045000000000002
    63   2      9.7750000000000004      26.134999999999998                      20
    64   1      7.7300000000000004                   24.09                   24.09
    65   3      9.7750000000000004                   24.09      26.134999999999998
    66   3      9.7750000000000004      26.134999999999998                   24.09
    67   3      9.7750000000000004      26.134999999999998                   28.18
    68   1      9.7750000000000004                   28.18                  13.865
    69   2      9.7750000000000004                   28.18      17.954999999999998
    70   1      7.7300000000000004                   28.18                      20
    71   1      9.7750000000000004                   28.18      22.045000000000002
    72   3      9.7750000000000004      30.225000000000001                      20
    73   2      9.7750000000000004                   28.18      26.134999999999998
    74   1                   11.82      9.7750000000000004                  13.865
    75   1                  13.865      9.7750000000000004                   11.82
    76   1                   11.82      9.7750000000000004      17.954999999999998
    77   3                  13.865      7.7300000000000004      17.954999999999998
    78   1                  13.865      9.7750000000000004                   15.91
    79   1                   11.82      7.7300000000000004                      20
    80   3                   11.82      9.7750000000000004      22.045000000000002
    81   2                  13.865      7.7300000000000004      22.045000000000002
    82   1                  13.865      9.7750000000000004                      20
    83   2                   11.82      9.7750000000000004      26.134999999999998
    84   1                  13.865      9.7750000000000004                   24.09
    85   1                  13.865      9.7750000000000004                   28.18
    86   2                   11.82                  13.865      9.7750000000000004
    87   1                  13.865                   11.82      9.7750000000000004
    88   2                   11.82                   11.82                   11.82
    89   3                   11.82                  13.865                  13.865
    90   2                  13.865                   11.82                  13.865
    91   1                  13.865                  13.865                   11.82
    92   2                   11.82                   11.82                   15.91
    93   1                   11.82                  13.865      17.954999999999998
    94   3                  13.865                   11.82      17.954999999999998
    95   1                  13.865                  13.865                   15.91
    96   1                   11.82                   11.82                      20
    97   3                   11.82                  13.865      22.045000000000002
    98   1                  13.865                   11.82      22.045000000000002
    99   2                  13.865                  13.865                      20
   100   2                   11.82                   11.82                   24.09
   101   2                   11.82                  13.865      26.134999999999998
   102   1                  13.865                   11.82      26.134999999999998
   103   2                  13.865                  13.865                   24.09
   104   2                   11.82                   11.82                   28.18
   105   3                   11.82                  13.865      30.225000000000001
   106   1                  13.865                   11.82      30.225000000000001
   107   1                  13.865                  13.865                   28.18
   108   2                   11.82      17.954999999999998      9.7750000000000004
   109   1                  13.865                   15.91      9.7750000000000004
   110   2                  13.865      17.954999999999998      7.7300000000000004
   111   1                   11.82                   15.91                   11.82
   112   2                   11.82      17.954999999999998                  13.865
   113   3                  13.865                   15.91                  13.865
   114   1                  13.865      17.954999999999998                   11.82
   115   2                   11.82                   15.91                   15.91
   116   2                   11.82      17.954999999999998      17.954999999999998
   117   3                  13.865                   15.91      17.954999999999998
   118   3                  13.865      17.954999999999998                   15.91
   119   2                   11.82                   15.91                      20
   120   3                   11.82      17.954999999999998      22.045000000000002
   121   1                  13.865                   15.91      22.045000000000002
   122   3                  13.865      17.954999999999998                      20
   123   2                   11.82                   15.91                   24.09
   124   3                   11.82      17.954999999999998      26.134999999999998
   125   1                  13.865                   15.91      26.134999999999998
   126   1                  13.865      17.954999999999998                   24.09
   127   1                   11.82                   15.91                   28.18
   128   2                   11.82      17.954999999999998      30.225000000000001
   129   1                  13.865                   15.91      30.225000000000001
   130   1                  13.865      17.954999999999998                   28.18
   131   1                  13.865      17.954999999999998      32.269999999999996
   132   3                   11.82                      20      7.7300000000000004
   133   1                   11.82      22.045000000000002      9.7750000000000004
   134   1                  13.865                      20      9.7750000000000004
   135   1                  13.865      22.045000000000002      7.7300000000000004
   136   1                   11.82                      20                   11.82
   137   3                   11.82      22.045000000000002                  13.865
   138   2                  13.865                      20                  13.865
   139   3                  13.865      22.045000000000002                   11.82
   140   1                   11.82                      20                   15.91
   141   2                   11.82      22.045000000000002      17.954999999999998
   142   3                  13.865                      20      17.954999999999998
   143   2                  13.865      22.045000000000002                   15.91
   144   1                   11.82                      20                      20
   145   3                   11.82      22.045000000000002      22.045000000000002
   146   1                  13.865                      20      22.045000000000002
   147   2                  13.865      22.045000000000002                      20
   148   2                   11.82                      20                   24.09
   149   3                   11.82      22.045000000000002      26.134999999999998
   150   3                  13.865                      20      26.134999999999998
   151   1                  13.865      22.045000000000002                   24.09
   152   2                   11.82                      20                   28.18
   153   1                   11.82      22.045000000000002      30.225000000000001
   154   3                  13.865                      20      30.225000000000001
   155   1                  13.865      22.045000000000002                   28.18
   156   2                   11.82                      20      32.269999999999996
   157   1                  13.865      22.045000000000002      32.269999999999996
   158   1                   11.82      26.134999999999998      9.7750000000000004
   159   1                  13.865                   24.09      9.7750000000000004
   160   1                   11.82                   24.09                   11.82
   161   3                   11.82      26.134999999999998                  13.865
   162   3                  13.865                   24.09                  13.865
   163   1                  13.865      26.134999999999998                   11.82
   164   1                   11.82                   24.09                   15.91
   165   3                   11.82      26.134999999999998      17.954999999999998
   166   1                  13.865                   24.09      17.954999999999998
   167   3                  13.865      26.134999999999998                   15.91
   168   3                   11.82                   24.09                      20
   169   1                   11.82      26.134999999999998      22.045000000000002
   170   1                  13.865                   24.09      22.045000000000002
   171   1                  13.865      26.134999999999998                      20
   172   1                   11.82                   24.09                   24.09
   173   3                   11.82      26.134999999999998      26.134999999999998
   174   1                  13.865                   24.09      26.134999999999998
   175   2                  13.865      26.134999999999998                   24.09
   176   1                   11.82                   24.09                   28.18
   177   2                   11.82      26.134999999999998      30.225000000000001
   178   2                  13.865                   24.09      30.225000000000001
   179   1                  13.865      26.134999999999998                   28.18
   180   2                  13.865                   28.18      9.7750000000000004
   181   1                   11.82                   28.18                   11.82
   182   1                   11.82      30.225000000000001                  13.865
   183   3                  13.865                   28.18                  13.865
   184   2                  13.865      30.225000000000001                   11.82
   185   2                   11.82                   28.18                   15.91
   186   1                   11.82      30.225000000000001      17.954999999999998
   187   1                  13.865                   28.18      17.954999999999998
   188   1                  13.865      30.225000000000001                   15.91
   189   3                   11.82                   28.18                      20
   190   2                   11.82      30.225000000000001      22.045000000000002
   191   2                  13.865                   28.18      22.045000000000002
   192   1                  13.865      30.225000000000001                      20
   193   3                   11.82                   28.18                   24.09
   194   2                   11.82      30.225000000000001      26.134999999999998
   195   3                  13.865                   28.18      26.134999999999998
   196   2                  13.865      30.225000000000001                   24.09
   197   3                   11.82                   28.18                   28.18
   198   3                  13.865                   28.18      30.225000000000001
   199   1                  13.865      30.225000000000001                   28.18
   200   2                  13.865      32.269999999999996      17.954999999999998
   201   3                   11.82      32.269999999999996                      20
   202   1                  13.865      32.269999999999996      22.045000000000002
   203   2      17.954999999999998      5.6850000000000005                      20
   204   3                   15.91      9.7750000000000004                  13.865
   205   1      17.954999999999998      7.7300000000000004                  13.865
   206   1      17.954999999999998      9.7750000000000004                   11.82
   207   2                   15.91      7.7300000000000004                   15.91
   208   1                   15.91      9.7750000000000004      17.954999999999998
   209   2      17.954999999999998      7.7300000000000004      17.954999999999998
   210   3      17.954999999999998      9.7750000000000004                   15.91
   211   2                   15.91      7.7300000000000004                      20
   212   2                   15.91      9.7750000000000004      22.045000000000002
   213   3      17.954999999999998      7.7300000000000004      22.045000000000002
   214   1      17.954999999999998      9.7750000000000004                      20
   215   3                   15.91      7.7300000000000004                   24.09
   216   2                   15.91      9.7750000000000004      26.134999999999998
   217   2      17.954999999999998      7.7300000000000004      26.134999999999998
   218   1      17.954999999999998      9.7750000000000004                   24.09
   219   1      17.954999999999998      9.7750000000000004                   28.18
   220   2                   15.91                  13.865      9.7750000000000004
   221   2      17.954999999999998                   11.82      9.7750000000000004
   222   1      17.954999999999998                  13.865      7.7300000000000004
   223   3                   15.91                   11.82                   11.82
   224   2                   15.91                  13.865                  13.865
   225   3      17.954999999999998                   11.82                  13.865
   226   2      17.954999999999998                  13.865                   11.82
   227   1                   15.91                   11.82                   15.91
   228   1                   15.91                  13.865      17.954999999999998
   229   2      17.954999999999998                   11.82      17.954999999999998
   230   3      17.954999999999998                  13.865                   15.91
   231   3                   15.91                   11.82                      20
   232   1                   15.91                  13.865      22.045000000000002
   233   2      17.954999999999998                   11.82      22.045000000000002
   234   1      17.954999999999998                  13.865                      20
   235   1                   15.91                   11.82                   24.09
   236   1                   15.91                  13.865      26.134999999999998
   237   2      17.954999999999998                   11.82      26.134999999999998
   238   1      17.954999999999998                  13.865                   24.09
   239   1                   15.91                   11.82                   28.18
   240   2                   15.91                  13.865      30.225000000000001
   241   2      17.954999999999998                   11.82      30.225000000000001
   242   2      17.954999999999998                  13.865                   28.18
   243   2      17.954999999999998                  13.865      32.269999999999996
   244   1                   15.91                   15.91      7.7300000000000004
   245   1                   15.91      17.954999999999998      9.7750000000000004
   246   1      17.954999999999998                   15.91      9.7750000000000004
   247   2      17.954999999999998      17.954999999999998      7.7300000000000004
   248   1                   15.91                   15.91                   11.82
   249   1                   15.91      17.954999999999998                  13.865
   250   1      17.954999999999998                   15.91                  13.865
   251   1      17.954999999999998      17.954999999999998                   11.82
   252   2                   15.91                   15.91                   15.91
   253   1                   15.91      17.954999999999998      17.954999999999998
   254   1      17.954999999999998                   15.91      17.954999999999998
   255   1      17.954999999999998      17.954999999999998                   15.91
   256   2                   15.91                   15.91                      20
   257   1                   15.91      17.954999999999998      22.045000000000002
   258   1      17.954999999999998                   15.91      22.045000000000002
   259   1      17.954999999999998      17.954999999999998                      20
   260   1                   15.91                   15.91                   24.09
   261   2                   15.91      17.954999999999998      26.134999999999998
   262   3      17.954999999999998                   15.91      26.134999999999998
   263   1      17.954999999999998      17.954999999999998                   24.09
   264   1                   15.91                   15.91                   28.18
   265   2                   15.91      17.954999999999998      30.225000000000001
   266   2      17.954999999999998                   15.91      30.225000000000001
   267   2      17.954999999999998      17.954999999999998                   28.18
   268   1                   15.91                   15.91      32.269999999999996
   269   1      17.954999999999998      17.954999999999998      32.269999999999996
   270   1      17.954999999999998                      20      5.6850000000000005
   271   3                   15.91                      20      7.7300000000000004
   272   2                   15.91      22.045000000000002      9.7750000000000004
   273   1      17.954999999999998                      20      9.7750000000000004
   274   2      17.954999999999998      22.045000000000002      7.7300000000000004
   275   1                   15.91                      20                   11.82
   276   2                   15.91      22.045000000000002                  13.865
   277   2      17.954999999999998                      20                  13.865
   278   2      17.954999999999998      22.045000000000002                   11.82
   279   2                   15.91                      20                   15.91
   280   2                   15.91      22.045000000000002      17.954999999999998
   281   2      17.954999999999998                      20      17.954999999999998
   282   3      17.954999999999998      22.045000000000002                   15.91
   283   1                   15.91                      20                      20
   284   3                   15.91      22.045000000000002      22.045000000000002
   285   2      17.954999999999998                      20      22.045000000000002
   286   1      17.954999999999998      22.045000000000002                      20
   287   1                   15.91                      20                   24.09
   288   3                   15.91      22.045000000000002      26.134999999999998
   289   1      17.954999999999998                      20      26.134999999999998
   290   3      17.954999999999998      22.045000000000002                   24.09
   291   2                   15.91                      20                   28.18
   292   2                   15.91      22.045000000000002      30.225000000000001
   293   2      17.954999999999998                      20      30.225000000000001
   294   1      17.954999999999998      22.045000000000002                   28.18
   295   1                   15.91                      20      32.269999999999996
   296   1      17.954999999999998                      20      34.314999999999998
   297   1      17.954999999999998      22.045000000000002      32.269999999999996
   298   1                   15.91                   24.09      7.7300000000000004
   299   2                   15.91      26.134999999999998      9.7750000000000004
   300   2      17.954999999999998                   24.09      9.7750000000000004
   301   2      17.954999999999998      26.134999999999998      7.7300000000000004
   302   2                   15.91                   24.09                   11.82
   303   1                   15.91      26.134999999999998                  13.865
   304   3      17.954999999999998                   24.09                  13.865
   305   2      17.954999999999998      26.134999999999998                   11.82
   306   1                   15.91                   24.09                   15.91
   307   1                   15.91      26.134999999999998      17.954999999999998
   308   1      17.954999999999998                   24.09      17.954999999999998
   309   3      17.954999999999998      26.134999999999998                   15.91
   310   3                   15.91                   24.09                      20
   311   2                   15.91      26.134999999999998      22.045000000000002
   312   2      17.954999999999998                   24.09      22.045000000000002
   313   2      17.954999999999998      26.134999999999998                      20
   314   1                   15.91                   24.09                   24.09
   315   1                   15.91      26.134999999999998      26.134999999999998
   316   1      17.954999999999998                   24.09      26.134999999999998
   317   3      17.954999999999998      26.134999999999998                   24.09
   318   2                   15.91                   24.09                   28.18
   319   1                   15.91      26.134999999999998      30.225000000000001
   320   3      17.954999999999998                   24.09      30.225000000000001
   321   1      17.954999999999998      26.134999999999998                   28.18
   322   1                   15.91                   24.09      32.269999999999996
   323   1      17.954999999999998      26.134999999999998      32.269999999999996
   324   3      17.954999999999998                   28.18      9.7750000000000004
   325   1                   15.91                   28.18                   11.82
   326   1                   15.91      30.225000000000001                  13.865
   327   3      17.954999999999998                   28.18                  13.865
   328   3      17.954999999999998      30.225000000000001                   11.82
   329   1                   15.91                   28.18                   15.91
   330   3                   15.91      30.225000000000001      17.954999999999998
   331   3      17.954999999999998                   28.18      17.954999999999998
   332   2      17.954999999999998      30.225000000000001                   15.91
   333   3                   15.91                   28.18                      20
   334   1                   15.91      30.225000000000001      22.045000000000002
   335   2      17.954999999999998                   28.18      22.045000000000002
   336   2      17.954999999999998      30.225000000000001                      20
   337   1                   15.91                   28.18                   24.09
   338   1                   15.91      30.225000000000001      26.134999999999998
   339   2      17.954999999999998                   28.18      26.134999999999998
   340   1      17.954999999999998      30.225000000000001                   24.09
   341   2                   15.91                   28.18                   28.18
   342   2      17.954999999999998                   28.18      30.225000000000001
   343   2      17.954999999999998      30.225000000000001                   28.18
   344   2      17.954999999999998      32.269999999999996                  13.865
   345   1                   15.91      32.269999999999996                   15.91
   346   1      17.954999999999998      32.269999999999996      17.954999999999998
   347   1                   15.91      32.269999999999996                      20
   348   2      17.954999999999998      32.269999999999996      22.045000000000002
   349   1      17.954999999999998      34.314999999999998                      20
   350   3                   15.91      32.269999999999996                   24.09
   351   2      17.954999999999998      32.269999999999996      26.134999999999998
   352   1                      20      5.6850000000000005      17.954999999999998
   353   2                      20      5.6850000000000005      22.045000000000002
   354   2      22.045000000000002      5.6850000000000005                      20
   355   2                      20      9.7750000000000004      9.7750000000000004
   356   2                      20      7.7300000000000004                   11.82
   357   2                      20      9.7750000000000004                  13.865
   358   1      22.045000000000002      7.7300000000000004                  13.865