/home/bill-peng/Projects/BNPs/TNP/RAL/AuPtPd30SP25RAL725RAL6.lmp (written by ASE) 

791 	 atoms 
3  atom types
0.0                      40  xlo xhi
0.0                      40  ylo yhi
0.0                      40  zlo zhi


Atoms 

     1   2      5.6850000000000005      17.954999999999998                      20
     2   2      5.6850000000000005                      20      17.954999999999998
     3   2      5.6850000000000005                      20      22.045000000000002
     4   3      5.6850000000000005      22.045000000000002                      20
     5   1      9.7750000000000004      9.7750000000000004                      20
     6   2      9.7750000000000004                   11.82                  13.865
     7   2      9.7750000000000004                  13.865                   11.82
     8   3      7.7300000000000004                  13.865      17.954999999999998
     9   2      9.7750000000000004                   11.82      17.954999999999998
    10   1      9.7750000000000004                  13.865                   15.91
    11   1      7.7300000000000004                   11.82                      20
    12   3      7.7300000000000004                  13.865      22.045000000000002
    13   2      9.7750000000000004                   11.82      22.045000000000002
    14   2      9.7750000000000004                  13.865                      20
    15   3      9.7750000000000004                   11.82      26.134999999999998
    16   1      9.7750000000000004                  13.865                   24.09
    17   3      9.7750000000000004                  13.865                   28.18
    18   1      7.7300000000000004      17.954999999999998                  13.865
    19   2      9.7750000000000004                   15.91                  13.865
    20   1      9.7750000000000004      17.954999999999998                   11.82
    21   1      7.7300000000000004                   15.91                   15.91
    22   1      7.7300000000000004      17.954999999999998      17.954999999999998
    23   2      9.7750000000000004                   15.91      17.954999999999998
    24   3      9.7750000000000004      17.954999999999998                   15.91
    25   2      7.7300000000000004                   15.91                      20
    26   3      7.7300000000000004      17.954999999999998      22.045000000000002
    27   1      9.7750000000000004                   15.91      22.045000000000002
    28   2      9.7750000000000004      17.954999999999998                      20
    29   3      7.7300000000000004                   15.91                   24.09
    30   1      7.7300000000000004      17.954999999999998      26.134999999999998
    31   1      9.7750000000000004                   15.91      26.134999999999998
    32   2      9.7750000000000004      17.954999999999998                   24.09
    33   2      9.7750000000000004      17.954999999999998                   28.18
    34   1      9.7750000000000004                      20      9.7750000000000004
    35   1      7.7300000000000004                      20                   11.82
    36   3      7.7300000000000004      22.045000000000002                  13.865
    37   2      9.7750000000000004                      20                  13.865
    38   2      9.7750000000000004      22.045000000000002                   11.82
    39   1      7.7300000000000004                      20                   15.91
    40   2      7.7300000000000004      22.045000000000002      17.954999999999998
    41   3      9.7750000000000004                      20      17.954999999999998
    42   1      9.7750000000000004      22.045000000000002                   15.91
    43   2      7.7300000000000004                      20                      20
    44   2      7.7300000000000004      22.045000000000002      22.045000000000002
    45   1      9.7750000000000004                      20      22.045000000000002
    46   1      9.7750000000000004      22.045000000000002                      20
    47   1      7.7300000000000004                      20                   24.09
    48   2      7.7300000000000004      22.045000000000002      26.134999999999998
    49   2      9.7750000000000004                      20      26.134999999999998
    50   2      9.7750000000000004      22.045000000000002                   24.09
    51   1      7.7300000000000004                      20                   28.18
    52   1      9.7750000000000004                      20      30.225000000000001
    53   3      9.7750000000000004      22.045000000000002                   28.18
    54   3      9.7750000000000004                   24.09                  13.865
    55   1      9.7750000000000004      26.134999999999998                   11.82
    56   1      7.7300000000000004                   24.09                   15.91
    57   2      7.7300000000000004      26.134999999999998      17.954999999999998
    58   1      9.7750000000000004                   24.09      17.954999999999998
    59   1      9.7750000000000004      26.134999999999998                   15.91
    60   1      7.7300000000000004                   24.09                      20
    61   2      7.7300000000000004      26.134999999999998      22.045000000000002
    62   1      9.7750000000000004                   24.09      22.045000000000002
    63   3      9.7750000000000004      26.134999999999998                      20
    64   2      7.7300000000000004                   24.09                   24.09
    65   2      9.7750000000000004                   24.09      26.134999999999998
    66   3      9.7750000000000004      26.134999999999998                   24.09
    67   3      9.7750000000000004      26.134999999999998                   28.18
    68   3      9.7750000000000004                   28.18                  13.865
    69   2      9.7750000000000004                   28.18      17.954999999999998
    70   2      7.7300000000000004                   28.18                      20
    71   1      9.7750000000000004                   28.18      22.045000000000002
    72   3      9.7750000000000004      30.225000000000001                      20
    73   1      9.7750000000000004                   28.18      26.134999999999998
    74   1                   11.82      9.7750000000000004                  13.865
    75   2                  13.865      9.7750000000000004                   11.82
    76   1                   11.82      9.7750000000000004      17.954999999999998
    77   3                  13.865      7.7300000000000004      17.954999999999998
    78   1                  13.865      9.7750000000000004                   15.91
    79   1                   11.82      7.7300000000000004                      20
    80   2                   11.82      9.7750000000000004      22.045000000000002
    81   2                  13.865      7.7300000000000004      22.045000000000002
    82   1                  13.865      9.7750000000000004                      20
    83   2                   11.82      9.7750000000000004      26.134999999999998
    84   1                  13.865      9.7750000000000004                   24.09
    85   3                  13.865      9.7750000000000004                   28.18
    86   1                   11.82                  13.865      9.7750000000000004
    87   1                  13.865                   11.82      9.7750000000000004
    88   3                   11.82                   11.82                   11.82
    89   2                   11.82                  13.865                  13.865
    90   1                  13.865                   11.82                  13.865
    91   2                  13.865                  13.865                   11.82
    92   3                   11.82                   11.82                   15.91
    93   1                   11.82                  13.865      17.954999999999998
    94   2                  13.865                   11.82      17.954999999999998
    95   1                  13.865                  13.865                   15.91
    96   1                   11.82                   11.82                      20
    97   2                   11.82                  13.865      22.045000000000002
    98   1                  13.865                   11.82      22.045000000000002
    99   1                  13.865                  13.865                      20
   100   1                   11.82                   11.82                   24.09
   101   2                   11.82                  13.865      26.134999999999998
   102   1                  13.865                   11.82      26.134999999999998
   103   1                  13.865                  13.865                   24.09
   104   3                   11.82                   11.82                   28.18
   105   1                   11.82                  13.865      30.225000000000001
   106   2                  13.865                   11.82      30.225000000000001
   107   3                  13.865                  13.865                   28.18
   108   3                   11.82      17.954999999999998      9.7750000000000004
   109   1                  13.865                   15.91      9.7750000000000004
   110   1                  13.865      17.954999999999998      7.7300000000000004
   111   1                   11.82                   15.91                   11.82
   112   2                   11.82      17.954999999999998                  13.865
   113   3                  13.865                   15.91                  13.865
   114   1                  13.865      17.954999999999998                   11.82
   115   3                   11.82                   15.91                   15.91
   116   1                   11.82      17.954999999999998      17.954999999999998
   117   2                  13.865                   15.91      17.954999999999998
   118   1                  13.865      17.954999999999998                   15.91
   119   3                   11.82                   15.91                      20
   120   3                   11.82      17.954999999999998      22.045000000000002
   121   1                  13.865                   15.91      22.045000000000002
   122   1                  13.865      17.954999999999998                      20
   123   3                   11.82                   15.91                   24.09
   124   1                   11.82      17.954999999999998      26.134999999999998
   125   3                  13.865                   15.91      26.134999999999998
   126   1                  13.865      17.954999999999998                   24.09
   127   3                   11.82                   15.91                   28.18
   128   3                   11.82      17.954999999999998      30.225000000000001
   129   3                  13.865                   15.91      30.225000000000001
   130   2                  13.865      17.954999999999998                   28.18
   131   1                  13.865      17.954999999999998      32.269999999999996
   132   1                   11.82                      20      7.7300000000000004
   133   1                   11.82      22.045000000000002      9.7750000000000004
   134   1                  13.865                      20      9.7750000000000004
   135   2                  13.865      22.045000000000002      7.7300000000000004
   136   1                   11.82                      20                   11.82
   137   1                   11.82      22.045000000000002                  13.865
   138   1                  13.865                      20                  13.865
   139   3                  13.865      22.045000000000002                   11.82
   140   2                   11.82                      20                   15.91
   141   3                   11.82      22.045000000000002      17.954999999999998
   142   3                  13.865                      20      17.954999999999998
   143   2                  13.865      22.045000000000002                   15.91
   144   1                   11.82                      20                      20
   145   3                   11.82      22.045000000000002      22.045000000000002
   146   2                  13.865                      20      22.045000000000002
   147   3                  13.865      22.045000000000002                      20
   148   2                   11.82                      20                   24.09
   149   2                   11.82      22.045000000000002      26.134999999999998
   150   1                  13.865                      20      26.134999999999998
   151   2                  13.865      22.045000000000002                   24.09
   152   1                   11.82                      20                   28.18
   153   1                   11.82      22.045000000000002      30.225000000000001
   154   2                  13.865                      20      30.225000000000001
   155   1                  13.865      22.045000000000002                   28.18
   156   2                   11.82                      20      32.269999999999996
   157   2                  13.865      22.045000000000002      32.269999999999996
   158   2                   11.82      26.134999999999998      9.7750000000000004
   159   1                  13.865                   24.09      9.7750000000000004
   160   1                   11.82                   24.09                   11.82
   161   1                   11.82      26.134999999999998                  13.865
   162   3                  13.865                   24.09                  13.865
   163   3                  13.865      26.134999999999998                   11.82
   164   3                   11.82                   24.09                   15.91
   165   2                   11.82      26.134999999999998      17.954999999999998
   166   2                  13.865                   24.09      17.954999999999998
   167   3                  13.865      26.134999999999998                   15.91
   168   2                   11.82                   24.09                      20
   169   1                   11.82      26.134999999999998      22.045000000000002
   170   2                  13.865                   24.09      22.045000000000002
   171   2                  13.865      26.134999999999998                      20
   172   2                   11.82                   24.09                   24.09
   173   2                   11.82      26.134999999999998      26.134999999999998
   174   1                  13.865                   24.09      26.134999999999998
   175   3                  13.865      26.134999999999998                   24.09
   176   1                   11.82                   24.09                   28.18
   177   1                   11.82      26.134999999999998      30.225000000000001
   178   3                  13.865                   24.09      30.225000000000001
   179   1                  13.865      26.134999999999998                   28.18
   180   1                  13.865                   28.18      9.7750000000000004
   181   2                   11.82                   28.18                   11.82
   182   2                   11.82      30.225000000000001                  13.865
   183   2                  13.865                   28.18                  13.865
   184   2                  13.865      30.225000000000001                   11.82
   185   3                   11.82                   28.18                   15.91
   186   3                   11.82      30.225000000000001      17.954999999999998
   187   1                  13.865                   28.18      17.954999999999998
   188   1                  13.865      30.225000000000001                   15.91
   189   1                   11.82                   28.18                      20
   190   3                   11.82      30.225000000000001      22.045000000000002
   191   1                  13.865                   28.18      22.045000000000002
   192   1                  13.865      30.225000000000001                      20
   193   1                   11.82                   28.18                   24.09
   194   1                   11.82      30.225000000000001      26.134999999999998
   195   1                  13.865                   28.18      26.134999999999998
   196   2                  13.865      30.225000000000001                   24.09
   197   1                   11.82                   28.18                   28.18
   198   2                  13.865                   28.18      30.225000000000001
   199   1                  13.865      30.225000000000001                   28.18
   200   3                  13.865      32.269999999999996      17.954999999999998
   201   2                   11.82      32.269999999999996                      20
   202   3                  13.865      32.269999999999996      22.045000000000002
   203   2      17.954999999999998      5.6850000000000005                      20
   204   3                   15.91      9.7750000000000004                  13.865
   205   1      17.954999999999998      7.7300000000000004                  13.865
   206   1      17.954999999999998      9.7750000000000004                   11.82
   207   1                   15.91      7.7300000000000004                   15.91
   208   2                   15.91      9.7750000000000004      17.954999999999998
   209   2      17.954999999999998      7.7300000000000004      17.954999999999998
   210   1      17.954999999999998      9.7750000000000004                   15.91
   211   2                   15.91      7.7300000000000004                      20
   212   1                   15.91      9.7750000000000004      22.045000000000002
   213   2      17.954999999999998      7.7300000000000004      22.045000000000002
   214   1      17.954999999999998      9.7750000000000004                      20
   215   3                   15.91      7.7300000000000004                   24.09
   216   2                   15.91      9.7750000000000004      26.134999999999998
   217   2      17.954999999999998      7.7300000000000004      26.134999999999998
   218   2      17.954999999999998      9.7750000000000004                   24.09
   219   2      17.954999999999998      9.7750000000000004                   28.18
   220   3                   15.91                  13.865      9.7750000000000004
   221   2      17.954999999999998                   11.82      9.7750000000000004
   222   2      17.954999999999998                  13.865      7.7300000000000004
   223   1                   15.91                   11.82                   11.82
   224   3                   15.91                  13.865                  13.865
   225   2      17.954999999999998                   11.82                  13.865
   226   1      17.954999999999998                  13.865                   11.82
   227   2                   15.91                   11.82                   15.91
   228   2                   15.91                  13.865      17.954999999999998
   229   1      17.954999999999998                   11.82      17.954999999999998
   230   2      17.954999999999998                  13.865                   15.91
   231   3                   15.91                   11.82                      20
   232   2                   15.91                  13.865      22.045000000000002
   233   1      17.954999999999998                   11.82      22.045000000000002
   234   1      17.954999999999998                  13.865                      20
   235   3                   15.91                   11.82                   24.09
   236   1                   15.91                  13.865      26.134999999999998
   237   1      17.954999999999998                   11.82      26.134999999999998
   238   3      17.954999999999998                  13.865                   24.09
   239   1                   15.91                   11.82                   28.18
   240   3                   15.91                  13.865      30.225000000000001
   241   2      17.954999999999998                   11.82      30.225000000000001
   242   1      17.954999999999998                  13.865                   28.18
   243   2      17.954999999999998                  13.865      32.269999999999996
   244   3                   15.91                   15.91      7.7300000000000004
   245   2                   15.91      17.954999999999998      9.7750000000000004
   246   1      17.954999999999998                   15.91      9.7750000000000004
   247   2      17.954999999999998      17.954999999999998      7.7300000000000004
   248   3                   15.91                   15.91                   11.82
   249   1                   15.91      17.954999999999998                  13.865
   250   2      17.954999999999998                   15.91                  13.865
   251   3      17.954999999999998      17.954999999999998                   11.82
   252   1                   15.91                   15.91                   15.91
   253   2                   15.91      17.954999999999998      17.954999999999998
   254   3      17.954999999999998                   15.91      17.954999999999998
   255   1      17.954999999999998      17.954999999999998                   15.91
   256   2                   15.91                   15.91                      20
   257   2                   15.91      17.954999999999998      22.045000000000002
   258   2      17.954999999999998                   15.91      22.045000000000002
   259   1      17.954999999999998      17.954999999999998                      20
   260   1                   15.91                   15.91                   24.09
   261   1                   15.91      17.954999999999998      26.134999999999998
   262   2      17.954999999999998                   15.91      26.134999999999998
   263   3      17.954999999999998      17.954999999999998                   24.09
   264   1                   15.91                   15.91                   28.18
   265   2                   15.91      17.954999999999998      30.225000000000001
   266   2      17.954999999999998                   15.91      30.225000000000001
   267   1      17.954999999999998      17.954999999999998                   28.18
   268   3                   15.91                   15.91      32.269999999999996
   269   3      17.954999999999998      17.954999999999998      32.269999999999996
   270   2      17.954999999999998                      20      5.6850000000000005
   271   2                   15.91                      20      7.7300000000000004
   272   2                   15.91      22.045000000000002      9.7750000000000004
   273   2      17.954999999999998                      20      9.7750000000000004
   274   2      17.954999999999998      22.045000000000002      7.7300000000000004
   275   1                   15.91                      20                   11.82
   276   1                   15.91      22.045000000000002                  13.865
   277   1      17.954999999999998                      20                  13.865
   278   1      17.954999999999998      22.045000000000002                   11.82
   279   1                   15.91                      20                   15.91
   280   3                   15.91      22.045000000000002      17.954999999999998
   281   2      17.954999999999998                      20      17.954999999999998
   282   1      17.954999999999998      22.045000000000002                   15.91
   283   1                   15.91                      20                      20
   284   3                   15.91      22.045000000000002      22.045000000000002
   285   1      17.954999999999998                      20      22.045000000000002
   286   2      17.954999999999998      22.045000000000002                      20
   287   2                   15.91                      20                   24.09
   288   2                   15.91      22.045000000000002      26.134999999999998
   289   2      17.954999999999998                      20      26.134999999999998
   290   2      17.954999999999998      22.045000000000002                   24.09
   291   1                   15.91                      20                   28.18
   292   1                   15.91      22.045000000000002      30.225000000000001
   293   1      17.954999999999998                      20      30.225000000000001
   294   2      17.954999999999998      22.045000000000002                   28.18
   295   2                   15.91                      20      32.269999999999996
   296   1      17.954999999999998                      20      34.314999999999998
   297   1      17.954999999999998      22.045000000000002      32.269999999999996
   298   1                   15.91                   24.09      7.7300000000000004
   299   2                   15.91      26.134999999999998      9.7750000000000004
   300   1      17.954999999999998                   24.09      9.7750000000000004
   301   2      17.954999999999998      26.134999999999998      7.7300000000000004
   302   1                   15.91                   24.09                   11.82
   303   1                   15.91      26.134999999999998                  13.865
   304   3      17.954999999999998                   24.09                  13.865
   305   2      17.954999999999998      26.134999999999998                   11.82
   306   1                   15.91                   24.09                   15.91
   307   3                   15.91      26.134999999999998      17.954999999999998
   308   2      17.954999999999998                   24.09      17.954999999999998
   309   3      17.954999999999998      26.134999999999998                   15.91
   310   1                   15.91                   24.09                      20
   311   1                   15.91      26.134999999999998      22.045000000000002
   312   3      17.954999999999998                   24.09      22.045000000000002
   313   3      17.954999999999998      26.134999999999998                      20
   314   1                   15.91                   24.09                   24.09
   315   1                   15.91      26.134999999999998      26.134999999999998
   316   1      17.954999999999998                   24.09      26.134999999999998
   317   3      17.954999999999998      26.134999999999998                   24.09
   318   1                   15.91                   24.09                   28.18
   319   3                   15.91      26.134999999999998      30.225000000000001
   320   3      17.954999999999998                   24.09      30.225000000000001
   321   2      17.954999999999998      26.134999999999998                   28.18
   322   2                   15.91                   24.09      32.269999999999996
   323   3      17.954999999999998      26.134999999999998      32.269999999999996
   324   1      17.954999999999998                   28.18      9.7750000000000004
   325   2                   15.91                   28.18                   11.82
   326   2                   15.91      30.225000000000001                  13.865
   327   1      17.954999999999998                   28.18                  13.865
   328   2      17.954999999999998      30.225000000000001                   11.82
   329   2                   15.91                   28.18                   15.91
   330   2                   15.91      30.225000000000001      17.954999999999998
   331   2      17.954999999999998                   28.18      17.954999999999998
   332   1      17.954999999999998      30.225000000000001                   15.91
   333   1                   15.91                   28.18                      20
   334   1                   15.91      30.225000000000001      22.045000000000002
   335   2      17.954999999999998                   28.18      22.045000000000002
   336   2      17.954999999999998      30.225000000000001                      20
   337   1                   15.91                   28.18                   24.09
   338   1                   15.91      30.225000000000001      26.134999999999998
   339   2      17.954999999999998                   28.18      26.134999999999998
   340   2      17.954999999999998      30.225000000000001                   24.09
   341   1                   15.91                   28.18                   28.18
   342   1      17.954999999999998                   28.18      30.225000000000001
   343   1      17.954999999999998      30.225000000000001                   28.18
   344   1      17.954999999999998      32.269999999999996                  13.865
   345   1                   15.91      32.269999999999996                   15.91
   346   2      17.954999999999998      32.269999999999996      17.954999999999998
   347   1                   15.91      32.269999999999996                      20
   348   2      17.954999999999998      32.269999999999996      22.045000000000002
   349   2      17.954999999999998      34.314999999999998                      20
   350   3                   15.91      32.269999999999996                   24.09
   351   1      17.954999999999998      32.269999999999996      26.134999999999998
   352   1                      20      5.6850000000000005      17.954999999999998
   353   2                      20      5.6850000000000005      22.045000000000002
   354   1      22.045000000000002      5.6850000000000005                      20
   355   1                      20      9.7750000000000004      9.7750000000000004
   356   2                      20      7.7300000000000004                   11.82
   357   2                      20      9.7750000000000004                  13.865
   358   1      22.045000000000002      7.7300000000000004                  13.865