/home/bill-peng/Projects/BNPs/TNP/RAL/PdAuPt30SP50RAL425RAL2.lmp (written by ASE) 

959 	 atoms 
3  atom types
0.0                      40  xlo xhi
0.0                      40  ylo yhi
0.0                      40  zlo zhi


Atoms 

     1   2      6.3849999999999998      14.164999999999999                      20
     2   2      6.3849999999999998      16.109999999999999                  18.055
     3   2      6.3849999999999998                  18.055      16.109999999999999
     4   2      6.3849999999999998      16.109999999999999                  21.945
     5   2      6.3849999999999998                  18.055                      20
     6   1      6.3849999999999998                  18.055      23.890000000000001
     7   2      6.3849999999999998                      20      14.164999999999999
     8   2      6.3849999999999998                      20                  18.055
     9   3      6.3849999999999998                  21.945      16.109999999999999
    10   1      6.3849999999999998                      20                  21.945
    11   2      6.3849999999999998                  21.945                      20
    12   1      6.3849999999999998                      20      25.835000000000001
    13   2      6.3849999999999998                  21.945      23.890000000000001
    14   2      6.3849999999999998      23.890000000000001                  18.055
    15   1      6.3849999999999998      23.890000000000001                  21.945
    16   3      6.3849999999999998      25.835000000000001                      20
    17   3      10.274999999999999      10.274999999999999      16.109999999999999
    18   1      10.274999999999999      10.274999999999999                      20
    19   3      10.274999999999999      10.274999999999999      23.890000000000001
    20   2      8.3300000000000001      14.164999999999999      14.164999999999999
    21   3      10.274999999999999      12.219999999999999      14.164999999999999
    22   2      10.274999999999999      14.164999999999999      12.219999999999999
    23   2      8.3300000000000001      12.219999999999999      16.109999999999999
    24   3      8.3300000000000001      14.164999999999999                  18.055
    25   2      10.274999999999999      12.219999999999999                  18.055
    26   3      10.274999999999999      14.164999999999999      16.109999999999999
    27   2      8.3300000000000001      12.219999999999999                      20
    28   2      8.3300000000000001      14.164999999999999                  21.945
    29   2      10.274999999999999      12.219999999999999                  21.945
    30   3      10.274999999999999      14.164999999999999                      20
    31   2      8.3300000000000001      12.219999999999999      23.890000000000001
    32   2      8.3300000000000001      14.164999999999999      25.835000000000001
    33   1      10.274999999999999      12.219999999999999      25.835000000000001
    34   1      10.274999999999999      14.164999999999999      23.890000000000001
    35   1      10.274999999999999      14.164999999999999      27.780000000000001
    36   2      10.274999999999999      16.109999999999999      10.274999999999999
    37   3      8.3300000000000001      16.109999999999999      12.219999999999999
    38   2      8.3300000000000001                  18.055      14.164999999999999
    39   2      10.274999999999999      16.109999999999999      14.164999999999999
    40   2      10.274999999999999                  18.055      12.219999999999999
    41   3      8.3300000000000001      16.109999999999999      16.109999999999999
    42   2      8.3300000000000001                  18.055                  18.055
    43   2      10.274999999999999      16.109999999999999                  18.055
    44   3      10.274999999999999                  18.055      16.109999999999999
    45   1      8.3300000000000001      16.109999999999999                      20
    46   2      8.3300000000000001                  18.055                  21.945
    47   3      10.274999999999999      16.109999999999999                  21.945
    48   2      10.274999999999999                  18.055                      20
    49   2      8.3300000000000001      16.109999999999999      23.890000000000001
    50   3      8.3300000000000001                  18.055      25.835000000000001
    51   2      10.274999999999999      16.109999999999999      25.835000000000001
    52   1      10.274999999999999                  18.055      23.890000000000001
    53   3      8.3300000000000001      16.109999999999999      27.780000000000001
    54   3      10.274999999999999      16.109999999999999      29.725000000000001
    55   1      10.274999999999999                  18.055      27.780000000000001
    56   1      10.274999999999999                      20      10.274999999999999
    57   2      8.3300000000000001                      20      12.219999999999999
    58   1      8.3300000000000001                  21.945      14.164999999999999
    59   3      10.274999999999999                      20      14.164999999999999
    60   3      10.274999999999999                  21.945      12.219999999999999
    61   3      8.3300000000000001                      20      16.109999999999999
    62   1      8.3300000000000001                  21.945                  18.055
    63   3      10.274999999999999                      20                  18.055
    64   2      10.274999999999999                  21.945      16.109999999999999
    65   2      8.3300000000000001                      20                      20
    66   2      8.3300000000000001                  21.945                  21.945
    67   3      10.274999999999999                      20                  21.945
    68   1      10.274999999999999                  21.945                      20
    69   3      8.3300000000000001                      20      23.890000000000001
    70   1      8.3300000000000001                  21.945      25.835000000000001
    71   3      10.274999999999999                      20      25.835000000000001
    72   2      10.274999999999999                  21.945      23.890000000000001
    73   2      8.3300000000000001                      20      27.780000000000001
    74   1      10.274999999999999                      20      29.725000000000001
    75   2      10.274999999999999                  21.945      27.780000000000001
    76   2      10.274999999999999      23.890000000000001      10.274999999999999
    77   3      8.3300000000000001      23.890000000000001      12.219999999999999
    78   2      8.3300000000000001      25.835000000000001      14.164999999999999
    79   3      10.274999999999999      23.890000000000001      14.164999999999999
    80   2      10.274999999999999      25.835000000000001      12.219999999999999
    81   3      8.3300000000000001      23.890000000000001      16.109999999999999
    82   1      8.3300000000000001      25.835000000000001                  18.055
    83   2      10.274999999999999      23.890000000000001                  18.055
    84   2      10.274999999999999      25.835000000000001      16.109999999999999
    85   2      8.3300000000000001      23.890000000000001                      20
    86   3      8.3300000000000001      25.835000000000001                  21.945
    87   1      10.274999999999999      23.890000000000001                  21.945
    88   3      10.274999999999999      25.835000000000001                      20
    89   3      8.3300000000000001      23.890000000000001      23.890000000000001
    90   2      8.3300000000000001      25.835000000000001      25.835000000000001
    91   2      10.274999999999999      23.890000000000001      25.835000000000001
    92   1      10.274999999999999      25.835000000000001      23.890000000000001
    93   1      8.3300000000000001      23.890000000000001      27.780000000000001
    94   2      10.274999999999999      23.890000000000001      29.725000000000001
    95   1      10.274999999999999      25.835000000000001      27.780000000000001
    96   1      10.274999999999999      27.780000000000001      14.164999999999999
    97   3      8.3300000000000001      27.780000000000001      16.109999999999999
    98   1      10.274999999999999      27.780000000000001                  18.055
    99   3      10.274999999999999      29.725000000000001      16.109999999999999
   100   3      8.3300000000000001      27.780000000000001                      20
   101   2      10.274999999999999      27.780000000000001                  21.945
   102   1      10.274999999999999      29.725000000000001                      20
   103   3      8.3300000000000001      27.780000000000001      23.890000000000001
   104   3      10.274999999999999      27.780000000000001      25.835000000000001
   105   3      10.274999999999999      29.725000000000001      23.890000000000001
   106   2      14.164999999999999      6.3849999999999998                      20
   107   1      12.219999999999999      10.274999999999999      14.164999999999999
   108   3      14.164999999999999      8.3300000000000001      14.164999999999999
   109   2      14.164999999999999      10.274999999999999      12.219999999999999
   110   3      12.219999999999999      8.3300000000000001      16.109999999999999
   111   1      12.219999999999999      10.274999999999999                  18.055
   112   3      14.164999999999999      8.3300000000000001                  18.055
   113   2      14.164999999999999      10.274999999999999      16.109999999999999
   114   1      12.219999999999999      8.3300000000000001                      20
   115   3      12.219999999999999      10.274999999999999                  21.945
   116   3      14.164999999999999      8.3300000000000001                  21.945
   117   2      14.164999999999999      10.274999999999999                      20
   118   2      12.219999999999999      8.3300000000000001      23.890000000000001
   119   3      12.219999999999999      10.274999999999999      25.835000000000001
   120   1      14.164999999999999      8.3300000000000001      25.835000000000001
   121   1      14.164999999999999      10.274999999999999      23.890000000000001
   122   2      14.164999999999999      10.274999999999999      27.780000000000001
   123   2      12.219999999999999      14.164999999999999      10.274999999999999
   124   2      14.164999999999999      12.219999999999999      10.274999999999999
   125   3      14.164999999999999      14.164999999999999      8.3300000000000001
   126   1      12.219999999999999      12.219999999999999      12.219999999999999
   127   1      12.219999999999999      14.164999999999999      14.164999999999999
   128   2      14.164999999999999      12.219999999999999      14.164999999999999
   129   1      14.164999999999999      14.164999999999999      12.219999999999999
   130   2      12.219999999999999      12.219999999999999      16.109999999999999
   131   2      12.219999999999999      14.164999999999999                  18.055
   132   3      14.164999999999999      12.219999999999999                  18.055
   133   1      14.164999999999999      14.164999999999999      16.109999999999999
   134   1      12.219999999999999      12.219999999999999                      20
   135   3      12.219999999999999      14.164999999999999                  21.945
   136   2      14.164999999999999      12.219999999999999                  21.945
   137   2      14.164999999999999      14.164999999999999                      20
   138   3      12.219999999999999      12.219999999999999      23.890000000000001
   139   2      12.219999999999999      14.164999999999999      25.835000000000001
   140   1      14.164999999999999      12.219999999999999      25.835000000000001
   141   3      14.164999999999999      14.164999999999999      23.890000000000001
   142   3      12.219999999999999      12.219999999999999      27.780000000000001
   143   2      12.219999999999999      14.164999999999999      29.725000000000001
   144   2      14.164999999999999      12.219999999999999      29.725000000000001
   145   3      14.164999999999999      14.164999999999999      27.780000000000001
   146   2      14.164999999999999      14.164999999999999      31.670000000000002
   147   2      12.219999999999999      16.109999999999999      8.3300000000000001
   148   1      12.219999999999999                  18.055      10.274999999999999
   149   2      14.164999999999999      16.109999999999999      10.274999999999999
   150   2      14.164999999999999                  18.055      8.3300000000000001
   151   1      12.219999999999999      16.109999999999999      12.219999999999999
   152   2      12.219999999999999                  18.055      14.164999999999999
   153   2      14.164999999999999      16.109999999999999      14.164999999999999
   154   2      14.164999999999999                  18.055      12.219999999999999
   155   1      12.219999999999999      16.109999999999999      16.109999999999999
   156   1      12.219999999999999                  18.055                  18.055
   157   2      14.164999999999999      16.109999999999999                  18.055
   158   2      14.164999999999999                  18.055      16.109999999999999
   159   2      12.219999999999999      16.109999999999999                      20
   160   1      12.219999999999999                  18.055                  21.945
   161   3      14.164999999999999      16.109999999999999                  21.945
   162   1      14.164999999999999                  18.055                      20
   163   1      12.219999999999999      16.109999999999999      23.890000000000001
   164   3      12.219999999999999                  18.055      25.835000000000001
   165   3      14.164999999999999      16.109999999999999      25.835000000000001
   166   2      14.164999999999999                  18.055      23.890000000000001
   167   2      12.219999999999999      16.109999999999999      27.780000000000001
   168   2      12.219999999999999                  18.055      29.725000000000001
   169   1      14.164999999999999      16.109999999999999      29.725000000000001
   170   1      14.164999999999999                  18.055      27.780000000000001
   171   2      12.219999999999999      16.109999999999999      31.670000000000002
   172   2      14.164999999999999                  18.055      31.670000000000002
   173   2      14.164999999999999                      20      6.3849999999999998
   174   2      12.219999999999999                      20      8.3300000000000001
   175   3      12.219999999999999                  21.945      10.274999999999999
   176   1      14.164999999999999                      20      10.274999999999999
   177   3      14.164999999999999                  21.945      8.3300000000000001
   178   3      12.219999999999999                      20      12.219999999999999
   179   1      12.219999999999999                  21.945      14.164999999999999
   180   3      14.164999999999999                      20      14.164999999999999
   181   1      14.164999999999999                  21.945      12.219999999999999
   182   1      12.219999999999999                      20      16.109999999999999
   183   3      12.219999999999999                  21.945                  18.055
   184   2      14.164999999999999                      20                  18.055
   185   2      14.164999999999999                  21.945      16.109999999999999
   186   3      12.219999999999999                      20                      20
   187   2      12.219999999999999                  21.945                  21.945
   188   1      14.164999999999999                      20                  21.945
   189   2      14.164999999999999                  21.945                      20
   190   3      12.219999999999999                      20      23.890000000000001
   191   3      12.219999999999999                  21.945      25.835000000000001
   192   1      14.164999999999999                      20      25.835000000000001
   193   2      14.164999999999999                  21.945      23.890000000000001
   194   2      12.219999999999999                      20      27.780000000000001
   195   3      12.219999999999999                  21.945      29.725000000000001
   196   3      14.164999999999999                      20      29.725000000000001
   197   3      14.164999999999999                  21.945      27.780000000000001
   198   2      12.219999999999999                      20      31.670000000000002
   199   3      14.164999999999999                      20      33.615000000000002
   200   2      14.164999999999999                  21.945      31.670000000000002
   201   1      12.219999999999999      23.890000000000001      8.3300000000000001
   202   1      12.219999999999999      25.835000000000001      10.274999999999999
   203   3      14.164999999999999      23.890000000000001      10.274999999999999
   204   1      14.164999999999999      25.835000000000001      8.3300000000000001
   205   1      12.219999999999999      23.890000000000001      12.219999999999999
   206   1      12.219999999999999      25.835000000000001      14.164999999999999
   207   3      14.164999999999999      23.890000000000001      14.164999999999999
   208   1      14.164999999999999      25.835000000000001      12.219999999999999
   209   3      12.219999999999999      23.890000000000001      16.109999999999999
   210   3      12.219999999999999      25.835000000000001                  18.055
   211   3      14.164999999999999      23.890000000000001                  18.055
   212   2      14.164999999999999      25.835000000000001      16.109999999999999
   213   2      12.219999999999999      23.890000000000001                      20
   214   1      12.219999999999999      25.835000000000001                  21.945
   215   2      14.164999999999999      23.890000000000001                  21.945
   216   2      14.164999999999999      25.835000000000001                      20
   217   3      12.219999999999999      23.890000000000001      23.890000000000001
   218   3      12.219999999999999      25.835000000000001      25.835000000000001
   219   2      14.164999999999999      23.890000000000001      25.835000000000001
   220   2      14.164999999999999      25.835000000000001      23.890000000000001
   221   2      12.219999999999999      23.890000000000001      27.780000000000001
   222   3      12.219999999999999      25.835000000000001      29.725000000000001
   223   2      14.164999999999999      23.890000000000001      29.725000000000001
   224   2      14.164999999999999      25.835000000000001      27.780000000000001
   225   1      12.219999999999999      23.890000000000001      31.670000000000002
   226   2      14.164999999999999      25.835000000000001      31.670000000000002
   227   1      14.164999999999999      27.780000000000001      10.274999999999999
   228   1      12.219999999999999      27.780000000000001      12.219999999999999
   229   2      12.219999999999999      29.725000000000001      14.164999999999999
   230   3      14.164999999999999      27.780000000000001      14.164999999999999
   231   2      14.164999999999999      29.725000000000001      12.219999999999999
   232   2      12.219999999999999      27.780000000000001      16.109999999999999
   233   2      12.219999999999999      29.725000000000001                  18.055
   234   1      14.164999999999999      27.780000000000001                  18.055
   235   1      14.164999999999999      29.725000000000001      16.109999999999999
   236   1      12.219999999999999      27.780000000000001                      20
   237   3      12.219999999999999      29.725000000000001                  21.945
   238   1      14.164999999999999      27.780000000000001                  21.945
   239   1      14.164999999999999      29.725000000000001                      20
   240   3      12.219999999999999      27.780000000000001      23.890000000000001
   241   2      12.219999999999999      29.725000000000001      25.835000000000001
   242   1      14.164999999999999      27.780000000000001      25.835000000000001
   243   3      14.164999999999999      29.725000000000001      23.890000000000001
   244   1      12.219999999999999      27.780000000000001      27.780000000000001
   245   3      14.164999999999999      27.780000000000001      29.725000000000001
   246   1      14.164999999999999      29.725000000000001      27.780000000000001
   247   3      14.164999999999999      31.670000000000002      14.164999999999999
   248   1      12.219999999999999      31.670000000000002      16.109999999999999
   249   3      14.164999999999999      31.670000000000002                  18.055
   250   3      12.219999999999999      31.670000000000002                      20
   251   2      14.164999999999999      31.670000000000002                  21.945
   252   3      14.164999999999999      33.615000000000002                      20
   253   2      12.219999999999999      31.670000000000002      23.890000000000001
   254   3      14.164999999999999      31.670000000000002      25.835000000000001
   255   1      16.109999999999999      6.3849999999999998                  18.055
   256   3                  18.055      6.3849999999999998      16.109999999999999
   257   2      16.109999999999999      6.3849999999999998                  21.945
   258   1                  18.055      6.3849999999999998                      20
   259   2                  18.055      6.3849999999999998      23.890000000000001
   260   2      16.109999999999999      10.274999999999999      10.274999999999999
   261   3      16.109999999999999      8.3300000000000001      12.219999999999999
   262   1      16.109999999999999      10.274999999999999      14.164999999999999
   263   2                  18.055      8.3300000000000001      14.164999999999999
   264   3                  18.055      10.274999999999999      12.219999999999999
   265   3      16.109999999999999      8.3300000000000001      16.109999999999999
   266   3      16.109999999999999      10.274999999999999                  18.055
   267   3                  18.055      8.3300000000000001                  18.055
   268   3                  18.055      10.274999999999999      16.109999999999999
   269   1      16.109999999999999      8.3300000000000001                      20
   270   2      16.109999999999999      10.274999999999999                  21.945
   271   3                  18.055      8.3300000000000001                  21.945
   272   2                  18.055      10.274999999999999                      20
   273   2      16.109999999999999      8.3300000000000001      23.890000000000001
   274   3      16.109999999999999      10.274999999999999      25.835000000000001
   275   3                  18.055      8.3300000000000001      25.835000000000001
   276   3                  18.055      10.274999999999999      23.890000000000001
   277   3      16.109999999999999      8.3300000000000001      27.780000000000001
   278   3      16.109999999999999      10.274999999999999      29.725000000000001
   279   3                  18.055      10.274999999999999      27.780000000000001
   280   3      16.109999999999999      12.219999999999999      8.3300000000000001
   281   3      16.109999999999999      14.164999999999999      10.274999999999999
   282   3                  18.055      12.219999999999999      10.274999999999999
   283   3                  18.055      14.164999999999999      8.3300000000000001
   284   2      16.109999999999999      12.219999999999999      12.219999999999999
   285   3      16.109999999999999      14.164999999999999      14.164999999999999
   286   3                  18.055      12.219999999999999      14.164999999999999
   287   1                  18.055      14.164999999999999      12.219999999999999
   288   3      16.109999999999999      12.219999999999999      16.109999999999999
   289   1      16.109999999999999      14.164999999999999                  18.055
   290   2                  18.055      12.219999999999999                  18.055
   291   2                  18.055      14.164999999999999      16.109999999999999
   292   2      16.109999999999999      12.219999999999999                      20
   293   3      16.109999999999999      14.164999999999999                  21.945
   294   1                  18.055      12.219999999999999                  21.945
   295   2                  18.055      14.164999999999999                      20
   296   2      16.109999999999999      12.219999999999999      23.890000000000001
   297   1      16.109999999999999      14.164999999999999      25.835000000000001
   298   3                  18.055      12.219999999999999      25.835000000000001
   299   3                  18.055      14.164999999999999      23.890000000000001
   300   2      16.109999999999999      12.219999999999999      27.780000000000001
   301   2      16.109999999999999      14.164999999999999      29.725000000000001
   302   3                  18.055      12.219999999999999      29.725000000000001
   303   1                  18.055      14.164999999999999      27.780000000000001
   304   2      16.109999999999999      12.219999999999999      31.670000000000002
   305   3                  18.055      14.164999999999999      31.670000000000002
   306   1      16.109999999999999                  18.055      6.3849999999999998
   307   1                  18.055      16.109999999999999      6.3849999999999998
   308   2      16.109999999999999      16.109999999999999      8.3300000000000001
   309   1      16.109999999999999                  18.055      10.274999999999999
   310   3                  18.055      16.109999999999999      10.274999999999999
   311   3                  18.055                  18.055      8.3300000000000001
   312   2      16.109999999999999      16.109999999999999      12.219999999999999
   313   2      16.109999999999999                  18.055      14.164999999999999
   314   2                  18.055      16.109999999999999      14.164999999999999
   315   1                  18.055                  18.055      12.219999999999999
   316   2      16.109999999999999      16.109999999999999      16.109999999999999
   317   2      16.109999999999999                  18.055                  18.055
   318   3                  18.055      16.109999999999999                  18.055
   319   2                  18.055                  18.055      16.109999999999999
   320   3      16.109999999999999      16.109999999999999                      20
   321   1      16.109999999999999                  18.055                  21.945
   322   1                  18.055      16.109999999999999                  21.945
   323   1                  18.055                  18.055                      20
   324   2      16.109999999999999      16.109999999999999      23.890000000000001
   325   1      16.109999999999999                  18.055      25.835000000000001
   326   1                  18.055      16.109999999999999      25.835000000000001
   327   2                  18.055                  18.055      23.890000000000001
   328   1      16.109999999999999      16.109999999999999      27.780000000000001
   329   1      16.109999999999999                  18.055      29.725000000000001
   330   1                  18.055      16.109999999999999      29.725000000000001
   331   2                  18.055                  18.055      27.780000000000001
   332   2      16.109999999999999      16.109999999999999      31.670000000000002
   333   2      16.109999999999999                  18.055      33.615000000000002
   334   1                  18.055      16.109999999999999      33.615000000000002
   335   3                  18.055                  18.055      31.670000000000002
   336   3      16.109999999999999                  21.945      6.3849999999999998
   337   1                  18.055                      20      6.3849999999999998
   338   3      16.109999999999999                      20      8.3300000000000001
   339   3      16.109999999999999                  21.945      10.274999999999999
   340   1                  18.055                      20      10.274999999999999
   341   3                  18.055                  21.945      8.3300000000000001
   342   3      16.109999999999999                      20      12.219999999999999
   343   3      16.109999999999999                  21.945      14.164999999999999
   344   3                  18.055                      20      14.164999999999999
   345   2                  18.055                  21.945      12.219999999999999
   346   2      16.109999999999999                      20      16.109999999999999
   347   1      16.109999999999999                  21.945                  18.055
   348   3                  18.055                      20                  18.055
   349   3                  18.055                  21.945      16.109999999999999
   350   3      16.109999999999999                      20                      20
   351   3      16.109999999999999                  21.945                  21.945
   352   1                  18.055                      20                  21.945
   353   3                  18.055                  21.945                      20
   354   1      16.109999999999999                      20      23.890000000000001
   355   3      16.109999999999999                  21.945      25.835000000000001
   356   2                  18.055                      20      25.835000000000001
   357   3                  18.055                  21.945      23.890000000000001
   358   1      16.109999999999999                      20      27.780000000000001