/home/bill-peng/Projects/BNPs/TNP/RAL/PdAuPt30SP50RAL525RAL4.lmp (written by ASE) 

959 	 atoms 
3  atom types
0.0                      40  xlo xhi
0.0                      40  ylo yhi
0.0                      40  zlo zhi


Atoms 

     1   3      6.3849999999999998      14.164999999999999                      20
     2   2      6.3849999999999998      16.109999999999999                  18.055
     3   3      6.3849999999999998                  18.055      16.109999999999999
     4   2      6.3849999999999998      16.109999999999999                  21.945
     5   3      6.3849999999999998                  18.055                      20
     6   3      6.3849999999999998                  18.055      23.890000000000001
     7   2      6.3849999999999998                      20      14.164999999999999
     8   3      6.3849999999999998                      20                  18.055
     9   1      6.3849999999999998                  21.945      16.109999999999999
    10   1      6.3849999999999998                      20                  21.945
    11   3      6.3849999999999998                  21.945                      20
    12   2      6.3849999999999998                      20      25.835000000000001
    13   1      6.3849999999999998                  21.945      23.890000000000001
    14   2      6.3849999999999998      23.890000000000001                  18.055
    15   2      6.3849999999999998      23.890000000000001                  21.945
    16   3      6.3849999999999998      25.835000000000001                      20
    17   1      10.274999999999999      10.274999999999999      16.109999999999999
    18   1      10.274999999999999      10.274999999999999                      20
    19   2      10.274999999999999      10.274999999999999      23.890000000000001
    20   3      8.3300000000000001      14.164999999999999      14.164999999999999
    21   1      10.274999999999999      12.219999999999999      14.164999999999999
    22   3      10.274999999999999      14.164999999999999      12.219999999999999
    23   3      8.3300000000000001      12.219999999999999      16.109999999999999
    24   3      8.3300000000000001      14.164999999999999                  18.055
    25   2      10.274999999999999      12.219999999999999                  18.055
    26   2      10.274999999999999      14.164999999999999      16.109999999999999
    27   1      8.3300000000000001      12.219999999999999                      20
    28   1      8.3300000000000001      14.164999999999999                  21.945
    29   2      10.274999999999999      12.219999999999999                  21.945
    30   2      10.274999999999999      14.164999999999999                      20
    31   1      8.3300000000000001      12.219999999999999      23.890000000000001
    32   2      8.3300000000000001      14.164999999999999      25.835000000000001
    33   1      10.274999999999999      12.219999999999999      25.835000000000001
    34   3      10.274999999999999      14.164999999999999      23.890000000000001
    35   1      10.274999999999999      14.164999999999999      27.780000000000001
    36   2      10.274999999999999      16.109999999999999      10.274999999999999
    37   3      8.3300000000000001      16.109999999999999      12.219999999999999
    38   2      8.3300000000000001                  18.055      14.164999999999999
    39   2      10.274999999999999      16.109999999999999      14.164999999999999
    40   2      10.274999999999999                  18.055      12.219999999999999
    41   3      8.3300000000000001      16.109999999999999      16.109999999999999
    42   2      8.3300000000000001                  18.055                  18.055
    43   3      10.274999999999999      16.109999999999999                  18.055
    44   1      10.274999999999999                  18.055      16.109999999999999
    45   1      8.3300000000000001      16.109999999999999                      20
    46   3      8.3300000000000001                  18.055                  21.945
    47   2      10.274999999999999      16.109999999999999                  21.945
    48   2      10.274999999999999                  18.055                      20
    49   2      8.3300000000000001      16.109999999999999      23.890000000000001
    50   3      8.3300000000000001                  18.055      25.835000000000001
    51   3      10.274999999999999      16.109999999999999      25.835000000000001
    52   1      10.274999999999999                  18.055      23.890000000000001
    53   2      8.3300000000000001      16.109999999999999      27.780000000000001
    54   3      10.274999999999999      16.109999999999999      29.725000000000001
    55   1      10.274999999999999                  18.055      27.780000000000001
    56   1      10.274999999999999                      20      10.274999999999999
    57   2      8.3300000000000001                      20      12.219999999999999
    58   2      8.3300000000000001                  21.945      14.164999999999999
    59   3      10.274999999999999                      20      14.164999999999999
    60   3      10.274999999999999                  21.945      12.219999999999999
    61   3      8.3300000000000001                      20      16.109999999999999
    62   2      8.3300000000000001                  21.945                  18.055
    63   2      10.274999999999999                      20                  18.055
    64   2      10.274999999999999                  21.945      16.109999999999999
    65   3      8.3300000000000001                      20                      20
    66   2      8.3300000000000001                  21.945                  21.945
    67   2      10.274999999999999                      20                  21.945
    68   1      10.274999999999999                  21.945                      20
    69   3      8.3300000000000001                      20      23.890000000000001
    70   2      8.3300000000000001                  21.945      25.835000000000001
    71   2      10.274999999999999                      20      25.835000000000001
    72   2      10.274999999999999                  21.945      23.890000000000001
    73   2      8.3300000000000001                      20      27.780000000000001
    74   2      10.274999999999999                      20      29.725000000000001
    75   1      10.274999999999999                  21.945      27.780000000000001
    76   1      10.274999999999999      23.890000000000001      10.274999999999999
    77   2      8.3300000000000001      23.890000000000001      12.219999999999999
    78   1      8.3300000000000001      25.835000000000001      14.164999999999999
    79   2      10.274999999999999      23.890000000000001      14.164999999999999
    80   3      10.274999999999999      25.835000000000001      12.219999999999999
    81   2      8.3300000000000001      23.890000000000001      16.109999999999999
    82   1      8.3300000000000001      25.835000000000001                  18.055
    83   2      10.274999999999999      23.890000000000001                  18.055
    84   3      10.274999999999999      25.835000000000001      16.109999999999999
    85   1      8.3300000000000001      23.890000000000001                      20
    86   3      8.3300000000000001      25.835000000000001                  21.945
    87   2      10.274999999999999      23.890000000000001                  21.945
    88   2      10.274999999999999      25.835000000000001                      20
    89   2      8.3300000000000001      23.890000000000001      23.890000000000001
    90   3      8.3300000000000001      25.835000000000001      25.835000000000001
    91   2      10.274999999999999      23.890000000000001      25.835000000000001
    92   1      10.274999999999999      25.835000000000001      23.890000000000001
    93   3      8.3300000000000001      23.890000000000001      27.780000000000001
    94   2      10.274999999999999      23.890000000000001      29.725000000000001
    95   2      10.274999999999999      25.835000000000001      27.780000000000001
    96   1      10.274999999999999      27.780000000000001      14.164999999999999
    97   1      8.3300000000000001      27.780000000000001      16.109999999999999
    98   1      10.274999999999999      27.780000000000001                  18.055
    99   3      10.274999999999999      29.725000000000001      16.109999999999999
   100   2      8.3300000000000001      27.780000000000001                      20
   101   3      10.274999999999999      27.780000000000001                  21.945
   102   2      10.274999999999999      29.725000000000001                      20
   103   3      8.3300000000000001      27.780000000000001      23.890000000000001
   104   3      10.274999999999999      27.780000000000001      25.835000000000001
   105   3      10.274999999999999      29.725000000000001      23.890000000000001
   106   2      14.164999999999999      6.3849999999999998                      20
   107   1      12.219999999999999      10.274999999999999      14.164999999999999
   108   3      14.164999999999999      8.3300000000000001      14.164999999999999
   109   2      14.164999999999999      10.274999999999999      12.219999999999999
   110   3      12.219999999999999      8.3300000000000001      16.109999999999999
   111   1      12.219999999999999      10.274999999999999                  18.055
   112   2      14.164999999999999      8.3300000000000001                  18.055
   113   2      14.164999999999999      10.274999999999999      16.109999999999999
   114   1      12.219999999999999      8.3300000000000001                      20
   115   2      12.219999999999999      10.274999999999999                  21.945
   116   3      14.164999999999999      8.3300000000000001                  21.945
   117   2      14.164999999999999      10.274999999999999                      20
   118   3      12.219999999999999      8.3300000000000001      23.890000000000001
   119   2      12.219999999999999      10.274999999999999      25.835000000000001
   120   2      14.164999999999999      8.3300000000000001      25.835000000000001
   121   2      14.164999999999999      10.274999999999999      23.890000000000001
   122   3      14.164999999999999      10.274999999999999      27.780000000000001
   123   3      12.219999999999999      14.164999999999999      10.274999999999999
   124   1      14.164999999999999      12.219999999999999      10.274999999999999
   125   2      14.164999999999999      14.164999999999999      8.3300000000000001
   126   1      12.219999999999999      12.219999999999999      12.219999999999999
   127   1      12.219999999999999      14.164999999999999      14.164999999999999
   128   1      14.164999999999999      12.219999999999999      14.164999999999999
   129   1      14.164999999999999      14.164999999999999      12.219999999999999
   130   2      12.219999999999999      12.219999999999999      16.109999999999999
   131   1      12.219999999999999      14.164999999999999                  18.055
   132   3      14.164999999999999      12.219999999999999                  18.055
   133   2      14.164999999999999      14.164999999999999      16.109999999999999
   134   2      12.219999999999999      12.219999999999999                      20
   135   2      12.219999999999999      14.164999999999999                  21.945
   136   1      14.164999999999999      12.219999999999999                  21.945
   137   1      14.164999999999999      14.164999999999999                      20
   138   3      12.219999999999999      12.219999999999999      23.890000000000001
   139   2      12.219999999999999      14.164999999999999      25.835000000000001
   140   2      14.164999999999999      12.219999999999999      25.835000000000001
   141   2      14.164999999999999      14.164999999999999      23.890000000000001
   142   2      12.219999999999999      12.219999999999999      27.780000000000001
   143   3      12.219999999999999      14.164999999999999      29.725000000000001
   144   2      14.164999999999999      12.219999999999999      29.725000000000001
   145   2      14.164999999999999      14.164999999999999      27.780000000000001
   146   3      14.164999999999999      14.164999999999999      31.670000000000002
   147   2      12.219999999999999      16.109999999999999      8.3300000000000001
   148   2      12.219999999999999                  18.055      10.274999999999999
   149   2      14.164999999999999      16.109999999999999      10.274999999999999
   150   3      14.164999999999999                  18.055      8.3300000000000001
   151   2      12.219999999999999      16.109999999999999      12.219999999999999
   152   1      12.219999999999999                  18.055      14.164999999999999
   153   1      14.164999999999999      16.109999999999999      14.164999999999999
   154   2      14.164999999999999                  18.055      12.219999999999999
   155   1      12.219999999999999      16.109999999999999      16.109999999999999
   156   3      12.219999999999999                  18.055                  18.055
   157   3      14.164999999999999      16.109999999999999                  18.055
   158   2      14.164999999999999                  18.055      16.109999999999999
   159   2      12.219999999999999      16.109999999999999                      20
   160   1      12.219999999999999                  18.055                  21.945
   161   3      14.164999999999999      16.109999999999999                  21.945
   162   1      14.164999999999999                  18.055                      20
   163   2      12.219999999999999      16.109999999999999      23.890000000000001
   164   1      12.219999999999999                  18.055      25.835000000000001
   165   3      14.164999999999999      16.109999999999999      25.835000000000001
   166   3      14.164999999999999                  18.055      23.890000000000001
   167   3      12.219999999999999      16.109999999999999      27.780000000000001
   168   3      12.219999999999999                  18.055      29.725000000000001
   169   2      14.164999999999999      16.109999999999999      29.725000000000001
   170   3      14.164999999999999                  18.055      27.780000000000001
   171   2      12.219999999999999      16.109999999999999      31.670000000000002
   172   3      14.164999999999999                  18.055      31.670000000000002
   173   3      14.164999999999999                      20      6.3849999999999998
   174   1      12.219999999999999                      20      8.3300000000000001
   175   3      12.219999999999999                  21.945      10.274999999999999
   176   1      14.164999999999999                      20      10.274999999999999
   177   1      14.164999999999999                  21.945      8.3300000000000001
   178   2      12.219999999999999                      20      12.219999999999999
   179   3      12.219999999999999                  21.945      14.164999999999999
   180   1      14.164999999999999                      20      14.164999999999999
   181   2      14.164999999999999                  21.945      12.219999999999999
   182   2      12.219999999999999                      20      16.109999999999999
   183   2      12.219999999999999                  21.945                  18.055
   184   2      14.164999999999999                      20                  18.055
   185   3      14.164999999999999                  21.945      16.109999999999999
   186   2      12.219999999999999                      20                      20
   187   2      12.219999999999999                  21.945                  21.945
   188   2      14.164999999999999                      20                  21.945
   189   3      14.164999999999999                  21.945                      20
   190   2      12.219999999999999                      20      23.890000000000001
   191   3      12.219999999999999                  21.945      25.835000000000001
   192   2      14.164999999999999                      20      25.835000000000001
   193   3      14.164999999999999                  21.945      23.890000000000001
   194   2      12.219999999999999                      20      27.780000000000001
   195   3      12.219999999999999                  21.945      29.725000000000001
   196   1      14.164999999999999                      20      29.725000000000001
   197   2      14.164999999999999                  21.945      27.780000000000001
   198   2      12.219999999999999                      20      31.670000000000002
   199   3      14.164999999999999                      20      33.615000000000002
   200   2      14.164999999999999                  21.945      31.670000000000002
   201   2      12.219999999999999      23.890000000000001      8.3300000000000001
   202   1      12.219999999999999      25.835000000000001      10.274999999999999
   203   2      14.164999999999999      23.890000000000001      10.274999999999999
   204   1      14.164999999999999      25.835000000000001      8.3300000000000001
   205   1      12.219999999999999      23.890000000000001      12.219999999999999
   206   1      12.219999999999999      25.835000000000001      14.164999999999999
   207   3      14.164999999999999      23.890000000000001      14.164999999999999
   208   2      14.164999999999999      25.835000000000001      12.219999999999999
   209   2      12.219999999999999      23.890000000000001      16.109999999999999
   210   2      12.219999999999999      25.835000000000001                  18.055
   211   2      14.164999999999999      23.890000000000001                  18.055
   212   2      14.164999999999999      25.835000000000001      16.109999999999999
   213   2      12.219999999999999      23.890000000000001                      20
   214   3      12.219999999999999      25.835000000000001                  21.945
   215   1      14.164999999999999      23.890000000000001                  21.945
   216   2      14.164999999999999      25.835000000000001                      20
   217   2      12.219999999999999      23.890000000000001      23.890000000000001
   218   2      12.219999999999999      25.835000000000001      25.835000000000001
   219   3      14.164999999999999      23.890000000000001      25.835000000000001
   220   1      14.164999999999999      25.835000000000001      23.890000000000001
   221   2      12.219999999999999      23.890000000000001      27.780000000000001
   222   3      12.219999999999999      25.835000000000001      29.725000000000001
   223   2      14.164999999999999      23.890000000000001      29.725000000000001
   224   2      14.164999999999999      25.835000000000001      27.780000000000001
   225   3      12.219999999999999      23.890000000000001      31.670000000000002
   226   3      14.164999999999999      25.835000000000001      31.670000000000002
   227   2      14.164999999999999      27.780000000000001      10.274999999999999
   228   2      12.219999999999999      27.780000000000001      12.219999999999999
   229   2      12.219999999999999      29.725000000000001      14.164999999999999
   230   2      14.164999999999999      27.780000000000001      14.164999999999999
   231   3      14.164999999999999      29.725000000000001      12.219999999999999
   232   2      12.219999999999999      27.780000000000001      16.109999999999999
   233   2      12.219999999999999      29.725000000000001                  18.055
   234   2      14.164999999999999      27.780000000000001                  18.055
   235   2      14.164999999999999      29.725000000000001      16.109999999999999
   236   2      12.219999999999999      27.780000000000001                      20
   237   3      12.219999999999999      29.725000000000001                  21.945
   238   2      14.164999999999999      27.780000000000001                  21.945
   239   1      14.164999999999999      29.725000000000001                      20
   240   2      12.219999999999999      27.780000000000001      23.890000000000001
   241   2      12.219999999999999      29.725000000000001      25.835000000000001
   242   2      14.164999999999999      27.780000000000001      25.835000000000001
   243   2      14.164999999999999      29.725000000000001      23.890000000000001
   244   2      12.219999999999999      27.780000000000001      27.780000000000001
   245   1      14.164999999999999      27.780000000000001      29.725000000000001
   246   1      14.164999999999999      29.725000000000001      27.780000000000001
   247   3      14.164999999999999      31.670000000000002      14.164999999999999
   248   1      12.219999999999999      31.670000000000002      16.109999999999999
   249   1      14.164999999999999      31.670000000000002                  18.055
   250   3      12.219999999999999      31.670000000000002                      20
   251   2      14.164999999999999      31.670000000000002                  21.945
   252   1      14.164999999999999      33.615000000000002                      20
   253   2      12.219999999999999      31.670000000000002      23.890000000000001
   254   1      14.164999999999999      31.670000000000002      25.835000000000001
   255   3      16.109999999999999      6.3849999999999998                  18.055
   256   3                  18.055      6.3849999999999998      16.109999999999999
   257   2      16.109999999999999      6.3849999999999998                  21.945
   258   1                  18.055      6.3849999999999998                      20
   259   3                  18.055      6.3849999999999998      23.890000000000001
   260   3      16.109999999999999      10.274999999999999      10.274999999999999
   261   3      16.109999999999999      8.3300000000000001      12.219999999999999
   262   2      16.109999999999999      10.274999999999999      14.164999999999999
   263   3                  18.055      8.3300000000000001      14.164999999999999
   264   3                  18.055      10.274999999999999      12.219999999999999
   265   3      16.109999999999999      8.3300000000000001      16.109999999999999
   266   2      16.109999999999999      10.274999999999999                  18.055
   267   2                  18.055      8.3300000000000001                  18.055
   268   2                  18.055      10.274999999999999      16.109999999999999
   269   1      16.109999999999999      8.3300000000000001                      20
   270   2      16.109999999999999      10.274999999999999                  21.945
   271   3                  18.055      8.3300000000000001                  21.945
   272   2                  18.055      10.274999999999999                      20
   273   2      16.109999999999999      8.3300000000000001      23.890000000000001
   274   3      16.109999999999999      10.274999999999999      25.835000000000001
   275   3                  18.055      8.3300000000000001      25.835000000000001
   276   2                  18.055      10.274999999999999      23.890000000000001
   277   2      16.109999999999999      8.3300000000000001      27.780000000000001
   278   2      16.109999999999999      10.274999999999999      29.725000000000001
   279   3                  18.055      10.274999999999999      27.780000000000001
   280   3      16.109999999999999      12.219999999999999      8.3300000000000001
   281   1      16.109999999999999      14.164999999999999      10.274999999999999
   282   3                  18.055      12.219999999999999      10.274999999999999
   283   1                  18.055      14.164999999999999      8.3300000000000001
   284   3      16.109999999999999      12.219999999999999      12.219999999999999
   285   2      16.109999999999999      14.164999999999999      14.164999999999999
   286   2                  18.055      12.219999999999999      14.164999999999999
   287   3                  18.055      14.164999999999999      12.219999999999999
   288   3      16.109999999999999      12.219999999999999      16.109999999999999
   289   1      16.109999999999999      14.164999999999999                  18.055
   290   3                  18.055      12.219999999999999                  18.055
   291   3                  18.055      14.164999999999999      16.109999999999999
   292   2      16.109999999999999      12.219999999999999                      20
   293   2      16.109999999999999      14.164999999999999                  21.945
   294   2                  18.055      12.219999999999999                  21.945
   295   2                  18.055      14.164999999999999                      20
   296   2      16.109999999999999      12.219999999999999      23.890000000000001
   297   1      16.109999999999999      14.164999999999999      25.835000000000001
   298   3                  18.055      12.219999999999999      25.835000000000001
   299   1                  18.055      14.164999999999999      23.890000000000001
   300   3      16.109999999999999      12.219999999999999      27.780000000000001
   301   3      16.109999999999999      14.164999999999999      29.725000000000001
   302   2                  18.055      12.219999999999999      29.725000000000001
   303   1                  18.055      14.164999999999999      27.780000000000001
   304   2      16.109999999999999      12.219999999999999      31.670000000000002
   305   2                  18.055      14.164999999999999      31.670000000000002
   306   1      16.109999999999999                  18.055      6.3849999999999998
   307   1                  18.055      16.109999999999999      6.3849999999999998
   308   3      16.109999999999999      16.109999999999999      8.3300000000000001
   309   1      16.109999999999999                  18.055      10.274999999999999
   310   2                  18.055      16.109999999999999      10.274999999999999
   311   2                  18.055                  18.055      8.3300000000000001
   312   2      16.109999999999999      16.109999999999999      12.219999999999999
   313   2      16.109999999999999                  18.055      14.164999999999999
   314   2                  18.055      16.109999999999999      14.164999999999999
   315   2                  18.055                  18.055      12.219999999999999
   316   1      16.109999999999999      16.109999999999999      16.109999999999999
   317   3      16.109999999999999                  18.055                  18.055
   318   2                  18.055      16.109999999999999                  18.055
   319   1                  18.055                  18.055      16.109999999999999
   320   2      16.109999999999999      16.109999999999999                      20
   321   2      16.109999999999999                  18.055                  21.945
   322   2                  18.055      16.109999999999999                  21.945
   323   2                  18.055                  18.055                      20
   324   2      16.109999999999999      16.109999999999999      23.890000000000001
   325   2      16.109999999999999                  18.055      25.835000000000001
   326   2                  18.055      16.109999999999999      25.835000000000001
   327   2                  18.055                  18.055      23.890000000000001
   328   2      16.109999999999999      16.109999999999999      27.780000000000001
   329   2      16.109999999999999                  18.055      29.725000000000001
   330   3                  18.055      16.109999999999999      29.725000000000001
   331   3                  18.055                  18.055      27.780000000000001
   332   2      16.109999999999999      16.109999999999999      31.670000000000002
   333   2      16.109999999999999                  18.055      33.615000000000002
   334   2                  18.055      16.109999999999999      33.615000000000002
   335   2                  18.055                  18.055      31.670000000000002
   336   1      16.109999999999999                  21.945      6.3849999999999998
   337   1                  18.055                      20      6.3849999999999998
   338   1      16.109999999999999                      20      8.3300000000000001
   339   3      16.109999999999999                  21.945      10.274999999999999
   340   2                  18.055                      20      10.274999999999999
   341   2                  18.055                  21.945      8.3300000000000001
   342   2      16.109999999999999                      20      12.219999999999999
   343   2      16.109999999999999                  21.945      14.164999999999999
   344   2                  18.055                      20      14.164999999999999
   345   3                  18.055                  21.945      12.219999999999999
   346   2      16.109999999999999                      20      16.109999999999999
   347   2      16.109999999999999                  21.945                  18.055
   348   3                  18.055                      20                  18.055
   349   2                  18.055                  21.945      16.109999999999999
   350   3      16.109999999999999                      20                      20
   351   2      16.109999999999999                  21.945                  21.945
   352   1                  18.055                      20                  21.945
   353   2                  18.055                  21.945                      20
   354   3      16.109999999999999                      20      23.890000000000001
   355   1      16.109999999999999                  21.945      25.835000000000001
   356   1                  18.055                      20      25.835000000000001
   357   2                  18.055                  21.945      23.890000000000001
   358   2      16.109999999999999                      20      27.780000000000001