/home/bill-peng/Projects/BNPs/TNP/RAL/PdAuPt30SP75RAL625RAL0.lmp (written by ASE) 

959 	 atoms 
3  atom types
0.0                      40  xlo xhi
0.0                      40  ylo yhi
0.0                      40  zlo zhi


Atoms 

     1   2      6.3849999999999998      14.164999999999999                      20
     2   2      6.3849999999999998      16.109999999999999                  18.055
     3   2      6.3849999999999998                  18.055      16.109999999999999
     4   1      6.3849999999999998      16.109999999999999                  21.945
     5   1      6.3849999999999998                  18.055                      20
     6   2      6.3849999999999998                  18.055      23.890000000000001
     7   2      6.3849999999999998                      20      14.164999999999999
     8   3      6.3849999999999998                      20                  18.055
     9   3      6.3849999999999998                  21.945      16.109999999999999
    10   2      6.3849999999999998                      20                  21.945
    11   3      6.3849999999999998                  21.945                      20
    12   2      6.3849999999999998                      20      25.835000000000001
    13   2      6.3849999999999998                  21.945      23.890000000000001
    14   3      6.3849999999999998      23.890000000000001                  18.055
    15   2      6.3849999999999998      23.890000000000001                  21.945
    16   2      6.3849999999999998      25.835000000000001                      20
    17   2      10.274999999999999      10.274999999999999      16.109999999999999
    18   3      10.274999999999999      10.274999999999999                      20
    19   3      10.274999999999999      10.274999999999999      23.890000000000001
    20   3      8.3300000000000001      14.164999999999999      14.164999999999999
    21   3      10.274999999999999      12.219999999999999      14.164999999999999
    22   3      10.274999999999999      14.164999999999999      12.219999999999999
    23   2      8.3300000000000001      12.219999999999999      16.109999999999999
    24   3      8.3300000000000001      14.164999999999999                  18.055
    25   2      10.274999999999999      12.219999999999999                  18.055
    26   2      10.274999999999999      14.164999999999999      16.109999999999999
    27   1      8.3300000000000001      12.219999999999999                      20
    28   3      8.3300000000000001      14.164999999999999                  21.945
    29   2      10.274999999999999      12.219999999999999                  21.945
    30   1      10.274999999999999      14.164999999999999                      20
    31   2      8.3300000000000001      12.219999999999999      23.890000000000001
    32   3      8.3300000000000001      14.164999999999999      25.835000000000001
    33   2      10.274999999999999      12.219999999999999      25.835000000000001
    34   2      10.274999999999999      14.164999999999999      23.890000000000001
    35   2      10.274999999999999      14.164999999999999      27.780000000000001
    36   2      10.274999999999999      16.109999999999999      10.274999999999999
    37   2      8.3300000000000001      16.109999999999999      12.219999999999999
    38   2      8.3300000000000001                  18.055      14.164999999999999
    39   3      10.274999999999999      16.109999999999999      14.164999999999999
    40   2      10.274999999999999                  18.055      12.219999999999999
    41   2      8.3300000000000001      16.109999999999999      16.109999999999999
    42   2      8.3300000000000001                  18.055                  18.055
    43   2      10.274999999999999      16.109999999999999                  18.055
    44   2      10.274999999999999                  18.055      16.109999999999999
    45   2      8.3300000000000001      16.109999999999999                      20
    46   2      8.3300000000000001                  18.055                  21.945
    47   2      10.274999999999999      16.109999999999999                  21.945
    48   1      10.274999999999999                  18.055                      20
    49   2      8.3300000000000001      16.109999999999999      23.890000000000001
    50   2      8.3300000000000001                  18.055      25.835000000000001
    51   2      10.274999999999999      16.109999999999999      25.835000000000001
    52   2      10.274999999999999                  18.055      23.890000000000001
    53   3      8.3300000000000001      16.109999999999999      27.780000000000001
    54   2      10.274999999999999      16.109999999999999      29.725000000000001
    55   2      10.274999999999999                  18.055      27.780000000000001
    56   2      10.274999999999999                      20      10.274999999999999
    57   1      8.3300000000000001                      20      12.219999999999999
    58   2      8.3300000000000001                  21.945      14.164999999999999
    59   2      10.274999999999999                      20      14.164999999999999
    60   2      10.274999999999999                  21.945      12.219999999999999
    61   2      8.3300000000000001                      20      16.109999999999999
    62   2      8.3300000000000001                  21.945                  18.055
    63   2      10.274999999999999                      20                  18.055
    64   1      10.274999999999999                  21.945      16.109999999999999
    65   2      8.3300000000000001                      20                      20
    66   2      8.3300000000000001                  21.945                  21.945
    67   3      10.274999999999999                      20                  21.945
    68   2      10.274999999999999                  21.945                      20
    69   3      8.3300000000000001                      20      23.890000000000001
    70   2      8.3300000000000001                  21.945      25.835000000000001
    71   3      10.274999999999999                      20      25.835000000000001
    72   2      10.274999999999999                  21.945      23.890000000000001
    73   3      8.3300000000000001                      20      27.780000000000001
    74   1      10.274999999999999                      20      29.725000000000001
    75   2      10.274999999999999                  21.945      27.780000000000001
    76   2      10.274999999999999      23.890000000000001      10.274999999999999
    77   1      8.3300000000000001      23.890000000000001      12.219999999999999
    78   2      8.3300000000000001      25.835000000000001      14.164999999999999
    79   1      10.274999999999999      23.890000000000001      14.164999999999999
    80   2      10.274999999999999      25.835000000000001      12.219999999999999
    81   2      8.3300000000000001      23.890000000000001      16.109999999999999
    82   1      8.3300000000000001      25.835000000000001                  18.055
    83   2      10.274999999999999      23.890000000000001                  18.055
    84   1      10.274999999999999      25.835000000000001      16.109999999999999
    85   2      8.3300000000000001      23.890000000000001                      20
    86   2      8.3300000000000001      25.835000000000001                  21.945
    87   2      10.274999999999999      23.890000000000001                  21.945
    88   2      10.274999999999999      25.835000000000001                      20
    89   2      8.3300000000000001      23.890000000000001      23.890000000000001
    90   3      8.3300000000000001      25.835000000000001      25.835000000000001
    91   1      10.274999999999999      23.890000000000001      25.835000000000001
    92   2      10.274999999999999      25.835000000000001      23.890000000000001
    93   1      8.3300000000000001      23.890000000000001      27.780000000000001
    94   2      10.274999999999999      23.890000000000001      29.725000000000001
    95   1      10.274999999999999      25.835000000000001      27.780000000000001
    96   2      10.274999999999999      27.780000000000001      14.164999999999999
    97   2      8.3300000000000001      27.780000000000001      16.109999999999999
    98   2      10.274999999999999      27.780000000000001                  18.055
    99   3      10.274999999999999      29.725000000000001      16.109999999999999
   100   2      8.3300000000000001      27.780000000000001                      20
   101   2      10.274999999999999      27.780000000000001                  21.945
   102   2      10.274999999999999      29.725000000000001                      20
   103   1      8.3300000000000001      27.780000000000001      23.890000000000001
   104   3      10.274999999999999      27.780000000000001      25.835000000000001
   105   2      10.274999999999999      29.725000000000001      23.890000000000001
   106   2      14.164999999999999      6.3849999999999998                      20
   107   1      12.219999999999999      10.274999999999999      14.164999999999999
   108   2      14.164999999999999      8.3300000000000001      14.164999999999999
   109   2      14.164999999999999      10.274999999999999      12.219999999999999
   110   3      12.219999999999999      8.3300000000000001      16.109999999999999
   111   2      12.219999999999999      10.274999999999999                  18.055
   112   3      14.164999999999999      8.3300000000000001                  18.055
   113   2      14.164999999999999      10.274999999999999      16.109999999999999
   114   2      12.219999999999999      8.3300000000000001                      20
   115   3      12.219999999999999      10.274999999999999                  21.945
   116   2      14.164999999999999      8.3300000000000001                  21.945
   117   3      14.164999999999999      10.274999999999999                      20
   118   2      12.219999999999999      8.3300000000000001      23.890000000000001
   119   3      12.219999999999999      10.274999999999999      25.835000000000001
   120   2      14.164999999999999      8.3300000000000001      25.835000000000001
   121   2      14.164999999999999      10.274999999999999      23.890000000000001
   122   1      14.164999999999999      10.274999999999999      27.780000000000001
   123   3      12.219999999999999      14.164999999999999      10.274999999999999
   124   2      14.164999999999999      12.219999999999999      10.274999999999999
   125   2      14.164999999999999      14.164999999999999      8.3300000000000001
   126   2      12.219999999999999      12.219999999999999      12.219999999999999
   127   1      12.219999999999999      14.164999999999999      14.164999999999999
   128   2      14.164999999999999      12.219999999999999      14.164999999999999
   129   1      14.164999999999999      14.164999999999999      12.219999999999999
   130   1      12.219999999999999      12.219999999999999      16.109999999999999
   131   2      12.219999999999999      14.164999999999999                  18.055
   132   2      14.164999999999999      12.219999999999999                  18.055
   133   1      14.164999999999999      14.164999999999999      16.109999999999999
   134   1      12.219999999999999      12.219999999999999                      20
   135   2      12.219999999999999      14.164999999999999                  21.945
   136   2      14.164999999999999      12.219999999999999                  21.945
   137   1      14.164999999999999      14.164999999999999                      20
   138   2      12.219999999999999      12.219999999999999      23.890000000000001
   139   1      12.219999999999999      14.164999999999999      25.835000000000001
   140   2      14.164999999999999      12.219999999999999      25.835000000000001
   141   3      14.164999999999999      14.164999999999999      23.890000000000001
   142   2      12.219999999999999      12.219999999999999      27.780000000000001
   143   2      12.219999999999999      14.164999999999999      29.725000000000001
   144   3      14.164999999999999      12.219999999999999      29.725000000000001
   145   3      14.164999999999999      14.164999999999999      27.780000000000001
   146   2      14.164999999999999      14.164999999999999      31.670000000000002
   147   2      12.219999999999999      16.109999999999999      8.3300000000000001
   148   3      12.219999999999999                  18.055      10.274999999999999
   149   1      14.164999999999999      16.109999999999999      10.274999999999999
   150   3      14.164999999999999                  18.055      8.3300000000000001
   151   1      12.219999999999999      16.109999999999999      12.219999999999999
   152   3      12.219999999999999                  18.055      14.164999999999999
   153   1      14.164999999999999      16.109999999999999      14.164999999999999
   154   1      14.164999999999999                  18.055      12.219999999999999
   155   2      12.219999999999999      16.109999999999999      16.109999999999999
   156   3      12.219999999999999                  18.055                  18.055
   157   3      14.164999999999999      16.109999999999999                  18.055
   158   2      14.164999999999999                  18.055      16.109999999999999
   159   1      12.219999999999999      16.109999999999999                      20
   160   2      12.219999999999999                  18.055                  21.945
   161   2      14.164999999999999      16.109999999999999                  21.945
   162   1      14.164999999999999                  18.055                      20
   163   2      12.219999999999999      16.109999999999999      23.890000000000001
   164   3      12.219999999999999                  18.055      25.835000000000001
   165   3      14.164999999999999      16.109999999999999      25.835000000000001
   166   3      14.164999999999999                  18.055      23.890000000000001
   167   1      12.219999999999999      16.109999999999999      27.780000000000001
   168   2      12.219999999999999                  18.055      29.725000000000001
   169   2      14.164999999999999      16.109999999999999      29.725000000000001
   170   2      14.164999999999999                  18.055      27.780000000000001
   171   2      12.219999999999999      16.109999999999999      31.670000000000002
   172   1      14.164999999999999                  18.055      31.670000000000002
   173   2      14.164999999999999                      20      6.3849999999999998
   174   1      12.219999999999999                      20      8.3300000000000001
   175   3      12.219999999999999                  21.945      10.274999999999999
   176   2      14.164999999999999                      20      10.274999999999999
   177   2      14.164999999999999                  21.945      8.3300000000000001
   178   3      12.219999999999999                      20      12.219999999999999
   179   2      12.219999999999999                  21.945      14.164999999999999
   180   2      14.164999999999999                      20      14.164999999999999
   181   2      14.164999999999999                  21.945      12.219999999999999
   182   2      12.219999999999999                      20      16.109999999999999
   183   1      12.219999999999999                  21.945                  18.055
   184   1      14.164999999999999                      20                  18.055
   185   3      14.164999999999999                  21.945      16.109999999999999
   186   2      12.219999999999999                      20                      20
   187   1      12.219999999999999                  21.945                  21.945
   188   1      14.164999999999999                      20                  21.945
   189   2      14.164999999999999                  21.945                      20
   190   1      12.219999999999999                      20      23.890000000000001
   191   1      12.219999999999999                  21.945      25.835000000000001
   192   2      14.164999999999999                      20      25.835000000000001
   193   2      14.164999999999999                  21.945      23.890000000000001
   194   3      12.219999999999999                      20      27.780000000000001
   195   1      12.219999999999999                  21.945      29.725000000000001
   196   2      14.164999999999999                      20      29.725000000000001
   197   1      14.164999999999999                  21.945      27.780000000000001
   198   2      12.219999999999999                      20      31.670000000000002
   199   2      14.164999999999999                      20      33.615000000000002
   200   2      14.164999999999999                  21.945      31.670000000000002
   201   2      12.219999999999999      23.890000000000001      8.3300000000000001
   202   2      12.219999999999999      25.835000000000001      10.274999999999999
   203   2      14.164999999999999      23.890000000000001      10.274999999999999
   204   2      14.164999999999999      25.835000000000001      8.3300000000000001
   205   1      12.219999999999999      23.890000000000001      12.219999999999999
   206   2      12.219999999999999      25.835000000000001      14.164999999999999
   207   3      14.164999999999999      23.890000000000001      14.164999999999999
   208   2      14.164999999999999      25.835000000000001      12.219999999999999
   209   2      12.219999999999999      23.890000000000001      16.109999999999999
   210   3      12.219999999999999      25.835000000000001                  18.055
   211   3      14.164999999999999      23.890000000000001                  18.055
   212   2      14.164999999999999      25.835000000000001      16.109999999999999
   213   2      12.219999999999999      23.890000000000001                      20
   214   1      12.219999999999999      25.835000000000001                  21.945
   215   1      14.164999999999999      23.890000000000001                  21.945
   216   3      14.164999999999999      25.835000000000001                      20
   217   1      12.219999999999999      23.890000000000001      23.890000000000001
   218   2      12.219999999999999      25.835000000000001      25.835000000000001
   219   2      14.164999999999999      23.890000000000001      25.835000000000001
   220   3      14.164999999999999      25.835000000000001      23.890000000000001
   221   1      12.219999999999999      23.890000000000001      27.780000000000001
   222   3      12.219999999999999      25.835000000000001      29.725000000000001
   223   1      14.164999999999999      23.890000000000001      29.725000000000001
   224   3      14.164999999999999      25.835000000000001      27.780000000000001
   225   1      12.219999999999999      23.890000000000001      31.670000000000002
   226   3      14.164999999999999      25.835000000000001      31.670000000000002
   227   2      14.164999999999999      27.780000000000001      10.274999999999999
   228   2      12.219999999999999      27.780000000000001      12.219999999999999
   229   3      12.219999999999999      29.725000000000001      14.164999999999999
   230   2      14.164999999999999      27.780000000000001      14.164999999999999
   231   1      14.164999999999999      29.725000000000001      12.219999999999999
   232   2      12.219999999999999      27.780000000000001      16.109999999999999
   233   2      12.219999999999999      29.725000000000001                  18.055
   234   2      14.164999999999999      27.780000000000001                  18.055
   235   2      14.164999999999999      29.725000000000001      16.109999999999999
   236   2      12.219999999999999      27.780000000000001                      20
   237   2      12.219999999999999      29.725000000000001                  21.945
   238   2      14.164999999999999      27.780000000000001                  21.945
   239   2      14.164999999999999      29.725000000000001                      20
   240   2      12.219999999999999      27.780000000000001      23.890000000000001
   241   3      12.219999999999999      29.725000000000001      25.835000000000001
   242   2      14.164999999999999      27.780000000000001      25.835000000000001
   243   2      14.164999999999999      29.725000000000001      23.890000000000001
   244   2      12.219999999999999      27.780000000000001      27.780000000000001
   245   2      14.164999999999999      27.780000000000001      29.725000000000001
   246   1      14.164999999999999      29.725000000000001      27.780000000000001
   247   2      14.164999999999999      31.670000000000002      14.164999999999999
   248   2      12.219999999999999      31.670000000000002      16.109999999999999
   249   2      14.164999999999999      31.670000000000002                  18.055
   250   1      12.219999999999999      31.670000000000002                      20
   251   1      14.164999999999999      31.670000000000002                  21.945
   252   3      14.164999999999999      33.615000000000002                      20
   253   3      12.219999999999999      31.670000000000002      23.890000000000001
   254   2      14.164999999999999      31.670000000000002      25.835000000000001
   255   3      16.109999999999999      6.3849999999999998                  18.055
   256   2                  18.055      6.3849999999999998      16.109999999999999
   257   2      16.109999999999999      6.3849999999999998                  21.945
   258   2                  18.055      6.3849999999999998                      20
   259   3                  18.055      6.3849999999999998      23.890000000000001
   260   2      16.109999999999999      10.274999999999999      10.274999999999999
   261   2      16.109999999999999      8.3300000000000001      12.219999999999999
   262   2      16.109999999999999      10.274999999999999      14.164999999999999
   263   2                  18.055      8.3300000000000001      14.164999999999999
   264   3                  18.055      10.274999999999999      12.219999999999999
   265   2      16.109999999999999      8.3300000000000001      16.109999999999999
   266   3      16.109999999999999      10.274999999999999                  18.055
   267   2                  18.055      8.3300000000000001                  18.055
   268   1                  18.055      10.274999999999999      16.109999999999999
   269   1      16.109999999999999      8.3300000000000001                      20
   270   2      16.109999999999999      10.274999999999999                  21.945
   271   3                  18.055      8.3300000000000001                  21.945
   272   3                  18.055      10.274999999999999                      20
   273   2      16.109999999999999      8.3300000000000001      23.890000000000001
   274   3      16.109999999999999      10.274999999999999      25.835000000000001
   275   2                  18.055      8.3300000000000001      25.835000000000001
   276   3                  18.055      10.274999999999999      23.890000000000001
   277   3      16.109999999999999      8.3300000000000001      27.780000000000001
   278   3      16.109999999999999      10.274999999999999      29.725000000000001
   279   1                  18.055      10.274999999999999      27.780000000000001
   280   3      16.109999999999999      12.219999999999999      8.3300000000000001
   281   2      16.109999999999999      14.164999999999999      10.274999999999999
   282   3                  18.055      12.219999999999999      10.274999999999999
   283   1                  18.055      14.164999999999999      8.3300000000000001
   284   2      16.109999999999999      12.219999999999999      12.219999999999999
   285   2      16.109999999999999      14.164999999999999      14.164999999999999
   286   2                  18.055      12.219999999999999      14.164999999999999
   287   3                  18.055      14.164999999999999      12.219999999999999
   288   2      16.109999999999999      12.219999999999999      16.109999999999999
   289   2      16.109999999999999      14.164999999999999                  18.055
   290   2                  18.055      12.219999999999999                  18.055
   291   2                  18.055      14.164999999999999      16.109999999999999
   292   2      16.109999999999999      12.219999999999999                      20
   293   3      16.109999999999999      14.164999999999999                  21.945
   294   1                  18.055      12.219999999999999                  21.945
   295   2                  18.055      14.164999999999999                      20
   296   2      16.109999999999999      12.219999999999999      23.890000000000001
   297   2      16.109999999999999      14.164999999999999      25.835000000000001
   298   3                  18.055      12.219999999999999      25.835000000000001
   299   3                  18.055      14.164999999999999      23.890000000000001
   300   3      16.109999999999999      12.219999999999999      27.780000000000001
   301   3      16.109999999999999      14.164999999999999      29.725000000000001
   302   3                  18.055      12.219999999999999      29.725000000000001
   303   1                  18.055      14.164999999999999      27.780000000000001
   304   2      16.109999999999999      12.219999999999999      31.670000000000002
   305   2                  18.055      14.164999999999999      31.670000000000002
   306   1      16.109999999999999                  18.055      6.3849999999999998
   307   2                  18.055      16.109999999999999      6.3849999999999998
   308   2      16.109999999999999      16.109999999999999      8.3300000000000001
   309   1      16.109999999999999                  18.055      10.274999999999999
   310   2                  18.055      16.109999999999999      10.274999999999999
   311   3                  18.055                  18.055      8.3300000000000001
   312   2      16.109999999999999      16.109999999999999      12.219999999999999
   313   2      16.109999999999999                  18.055      14.164999999999999
   314   2                  18.055      16.109999999999999      14.164999999999999
   315   2                  18.055                  18.055      12.219999999999999
   316   2      16.109999999999999      16.109999999999999      16.109999999999999
   317   2      16.109999999999999                  18.055                  18.055
   318   2                  18.055      16.109999999999999                  18.055
   319   3                  18.055                  18.055      16.109999999999999
   320   2      16.109999999999999      16.109999999999999                      20
   321   2      16.109999999999999                  18.055                  21.945
   322   2                  18.055      16.109999999999999                  21.945
   323   2                  18.055                  18.055                      20
   324   2      16.109999999999999      16.109999999999999      23.890000000000001
   325   2      16.109999999999999                  18.055      25.835000000000001
   326   2                  18.055      16.109999999999999      25.835000000000001
   327   2                  18.055                  18.055      23.890000000000001
   328   3      16.109999999999999      16.109999999999999      27.780000000000001
   329   1      16.109999999999999                  18.055      29.725000000000001
   330   2                  18.055      16.109999999999999      29.725000000000001
   331   1                  18.055                  18.055      27.780000000000001
   332   3      16.109999999999999      16.109999999999999      31.670000000000002
   333   1      16.109999999999999                  18.055      33.615000000000002
   334   2                  18.055      16.109999999999999      33.615000000000002
   335   3                  18.055                  18.055      31.670000000000002
   336   3      16.109999999999999                  21.945      6.3849999999999998
   337   2                  18.055                      20      6.3849999999999998
   338   2      16.109999999999999                      20      8.3300000000000001
   339   2      16.109999999999999                  21.945      10.274999999999999
   340   2                  18.055                      20      10.274999999999999
   341   1                  18.055                  21.945      8.3300000000000001
   342   1      16.109999999999999                      20      12.219999999999999
   343   1      16.109999999999999                  21.945      14.164999999999999
   344   2                  18.055                      20      14.164999999999999
   345   3                  18.055                  21.945      12.219999999999999
   346   2      16.109999999999999                      20      16.109999999999999
   347   2      16.109999999999999                  21.945                  18.055
   348   2                  18.055                      20                  18.055
   349   1                  18.055                  21.945      16.109999999999999
   350   3      16.109999999999999                      20                      20
   351   2      16.109999999999999                  21.945                  21.945
   352   2                  18.055                      20                  21.945
   353   2                  18.055                  21.945                      20
   354   1      16.109999999999999                      20      23.890000000000001
   355   2      16.109999999999999                  21.945      25.835000000000001
   356   2                  18.055                      20      25.835000000000001
   357   2                  18.055                  21.945      23.890000000000001
   358   1      16.109999999999999                      20      27.780000000000001