/home/bill-peng/Projects/BNPs/TNP/RAL/PdPtAu30SP50RAL325RAL6.lmp (written by ASE) 

959 	 atoms 
3  atom types
0.0                      40  xlo xhi
0.0                      40  ylo yhi
0.0                      40  zlo zhi


Atoms 

     1   2      6.3849999999999998      14.164999999999999                      20
     2   1      6.3849999999999998      16.109999999999999                  18.055
     3   2      6.3849999999999998                  18.055      16.109999999999999
     4   2      6.3849999999999998      16.109999999999999                  21.945
     5   3      6.3849999999999998                  18.055                      20
     6   3      6.3849999999999998                  18.055      23.890000000000001
     7   2      6.3849999999999998                      20      14.164999999999999
     8   2      6.3849999999999998                      20                  18.055
     9   1      6.3849999999999998                  21.945      16.109999999999999
    10   2      6.3849999999999998                      20                  21.945
    11   2      6.3849999999999998                  21.945                      20
    12   2      6.3849999999999998                      20      25.835000000000001
    13   1      6.3849999999999998                  21.945      23.890000000000001
    14   3      6.3849999999999998      23.890000000000001                  18.055
    15   1      6.3849999999999998      23.890000000000001                  21.945
    16   1      6.3849999999999998      25.835000000000001                      20
    17   1      10.274999999999999      10.274999999999999      16.109999999999999
    18   3      10.274999999999999      10.274999999999999                      20
    19   1      10.274999999999999      10.274999999999999      23.890000000000001
    20   2      8.3300000000000001      14.164999999999999      14.164999999999999
    21   3      10.274999999999999      12.219999999999999      14.164999999999999
    22   2      10.274999999999999      14.164999999999999      12.219999999999999
    23   2      8.3300000000000001      12.219999999999999      16.109999999999999
    24   3      8.3300000000000001      14.164999999999999                  18.055
    25   2      10.274999999999999      12.219999999999999                  18.055
    26   2      10.274999999999999      14.164999999999999      16.109999999999999
    27   2      8.3300000000000001      12.219999999999999                      20
    28   3      8.3300000000000001      14.164999999999999                  21.945
    29   2      10.274999999999999      12.219999999999999                  21.945
    30   1      10.274999999999999      14.164999999999999                      20
    31   3      8.3300000000000001      12.219999999999999      23.890000000000001
    32   2      8.3300000000000001      14.164999999999999      25.835000000000001
    33   3      10.274999999999999      12.219999999999999      25.835000000000001
    34   2      10.274999999999999      14.164999999999999      23.890000000000001
    35   2      10.274999999999999      14.164999999999999      27.780000000000001
    36   2      10.274999999999999      16.109999999999999      10.274999999999999
    37   2      8.3300000000000001      16.109999999999999      12.219999999999999
    38   2      8.3300000000000001                  18.055      14.164999999999999
    39   2      10.274999999999999      16.109999999999999      14.164999999999999
    40   1      10.274999999999999                  18.055      12.219999999999999
    41   2      8.3300000000000001      16.109999999999999      16.109999999999999
    42   1      8.3300000000000001                  18.055                  18.055
    43   1      10.274999999999999      16.109999999999999                  18.055
    44   1      10.274999999999999                  18.055      16.109999999999999
    45   2      8.3300000000000001      16.109999999999999                      20
    46   3      8.3300000000000001                  18.055                  21.945
    47   3      10.274999999999999      16.109999999999999                  21.945
    48   2      10.274999999999999                  18.055                      20
    49   2      8.3300000000000001      16.109999999999999      23.890000000000001
    50   1      8.3300000000000001                  18.055      25.835000000000001
    51   1      10.274999999999999      16.109999999999999      25.835000000000001
    52   2      10.274999999999999                  18.055      23.890000000000001
    53   1      8.3300000000000001      16.109999999999999      27.780000000000001
    54   2      10.274999999999999      16.109999999999999      29.725000000000001
    55   2      10.274999999999999                  18.055      27.780000000000001
    56   2      10.274999999999999                      20      10.274999999999999
    57   1      8.3300000000000001                      20      12.219999999999999
    58   3      8.3300000000000001                  21.945      14.164999999999999
    59   1      10.274999999999999                      20      14.164999999999999
    60   2      10.274999999999999                  21.945      12.219999999999999
    61   3      8.3300000000000001                      20      16.109999999999999
    62   1      8.3300000000000001                  21.945                  18.055
    63   3      10.274999999999999                      20                  18.055
    64   2      10.274999999999999                  21.945      16.109999999999999
    65   3      8.3300000000000001                      20                      20
    66   2      8.3300000000000001                  21.945                  21.945
    67   3      10.274999999999999                      20                  21.945
    68   2      10.274999999999999                  21.945                      20
    69   2      8.3300000000000001                      20      23.890000000000001
    70   1      8.3300000000000001                  21.945      25.835000000000001
    71   1      10.274999999999999                      20      25.835000000000001
    72   2      10.274999999999999                  21.945      23.890000000000001
    73   2      8.3300000000000001                      20      27.780000000000001
    74   3      10.274999999999999                      20      29.725000000000001
    75   1      10.274999999999999                  21.945      27.780000000000001
    76   2      10.274999999999999      23.890000000000001      10.274999999999999
    77   3      8.3300000000000001      23.890000000000001      12.219999999999999
    78   2      8.3300000000000001      25.835000000000001      14.164999999999999
    79   1      10.274999999999999      23.890000000000001      14.164999999999999
    80   1      10.274999999999999      25.835000000000001      12.219999999999999
    81   3      8.3300000000000001      23.890000000000001      16.109999999999999
    82   3      8.3300000000000001      25.835000000000001                  18.055
    83   1      10.274999999999999      23.890000000000001                  18.055
    84   3      10.274999999999999      25.835000000000001      16.109999999999999
    85   3      8.3300000000000001      23.890000000000001                      20
    86   2      8.3300000000000001      25.835000000000001                  21.945
    87   2      10.274999999999999      23.890000000000001                  21.945
    88   1      10.274999999999999      25.835000000000001                      20
    89   3      8.3300000000000001      23.890000000000001      23.890000000000001
    90   3      8.3300000000000001      25.835000000000001      25.835000000000001
    91   2      10.274999999999999      23.890000000000001      25.835000000000001
    92   2      10.274999999999999      25.835000000000001      23.890000000000001
    93   3      8.3300000000000001      23.890000000000001      27.780000000000001
    94   2      10.274999999999999      23.890000000000001      29.725000000000001
    95   3      10.274999999999999      25.835000000000001      27.780000000000001
    96   3      10.274999999999999      27.780000000000001      14.164999999999999
    97   2      8.3300000000000001      27.780000000000001      16.109999999999999
    98   2      10.274999999999999      27.780000000000001                  18.055
    99   3      10.274999999999999      29.725000000000001      16.109999999999999
   100   1      8.3300000000000001      27.780000000000001                      20
   101   1      10.274999999999999      27.780000000000001                  21.945
   102   1      10.274999999999999      29.725000000000001                      20
   103   2      8.3300000000000001      27.780000000000001      23.890000000000001
   104   1      10.274999999999999      27.780000000000001      25.835000000000001
   105   1      10.274999999999999      29.725000000000001      23.890000000000001
   106   2      14.164999999999999      6.3849999999999998                      20
   107   2      12.219999999999999      10.274999999999999      14.164999999999999
   108   1      14.164999999999999      8.3300000000000001      14.164999999999999
   109   1      14.164999999999999      10.274999999999999      12.219999999999999
   110   3      12.219999999999999      8.3300000000000001      16.109999999999999
   111   2      12.219999999999999      10.274999999999999                  18.055
   112   2      14.164999999999999      8.3300000000000001                  18.055
   113   1      14.164999999999999      10.274999999999999      16.109999999999999
   114   1      12.219999999999999      8.3300000000000001                      20
   115   2      12.219999999999999      10.274999999999999                  21.945
   116   3      14.164999999999999      8.3300000000000001                  21.945
   117   1      14.164999999999999      10.274999999999999                      20
   118   2      12.219999999999999      8.3300000000000001      23.890000000000001
   119   2      12.219999999999999      10.274999999999999      25.835000000000001
   120   2      14.164999999999999      8.3300000000000001      25.835000000000001
   121   2      14.164999999999999      10.274999999999999      23.890000000000001
   122   2      14.164999999999999      10.274999999999999      27.780000000000001
   123   1      12.219999999999999      14.164999999999999      10.274999999999999
   124   1      14.164999999999999      12.219999999999999      10.274999999999999
   125   3      14.164999999999999      14.164999999999999      8.3300000000000001
   126   3      12.219999999999999      12.219999999999999      12.219999999999999
   127   3      12.219999999999999      14.164999999999999      14.164999999999999
   128   2      14.164999999999999      12.219999999999999      14.164999999999999
   129   2      14.164999999999999      14.164999999999999      12.219999999999999
   130   2      12.219999999999999      12.219999999999999      16.109999999999999
   131   2      12.219999999999999      14.164999999999999                  18.055
   132   3      14.164999999999999      12.219999999999999                  18.055
   133   2      14.164999999999999      14.164999999999999      16.109999999999999
   134   3      12.219999999999999      12.219999999999999                      20
   135   1      12.219999999999999      14.164999999999999                  21.945
   136   2      14.164999999999999      12.219999999999999                  21.945
   137   2      14.164999999999999      14.164999999999999                      20
   138   3      12.219999999999999      12.219999999999999      23.890000000000001
   139   2      12.219999999999999      14.164999999999999      25.835000000000001
   140   1      14.164999999999999      12.219999999999999      25.835000000000001
   141   2      14.164999999999999      14.164999999999999      23.890000000000001
   142   2      12.219999999999999      12.219999999999999      27.780000000000001
   143   1      12.219999999999999      14.164999999999999      29.725000000000001
   144   2      14.164999999999999      12.219999999999999      29.725000000000001
   145   2      14.164999999999999      14.164999999999999      27.780000000000001
   146   1      14.164999999999999      14.164999999999999      31.670000000000002
   147   3      12.219999999999999      16.109999999999999      8.3300000000000001
   148   1      12.219999999999999                  18.055      10.274999999999999
   149   1      14.164999999999999      16.109999999999999      10.274999999999999
   150   2      14.164999999999999                  18.055      8.3300000000000001
   151   3      12.219999999999999      16.109999999999999      12.219999999999999
   152   2      12.219999999999999                  18.055      14.164999999999999
   153   3      14.164999999999999      16.109999999999999      14.164999999999999
   154   1      14.164999999999999                  18.055      12.219999999999999
   155   3      12.219999999999999      16.109999999999999      16.109999999999999
   156   1      12.219999999999999                  18.055                  18.055
   157   1      14.164999999999999      16.109999999999999                  18.055
   158   1      14.164999999999999                  18.055      16.109999999999999
   159   2      12.219999999999999      16.109999999999999                      20
   160   1      12.219999999999999                  18.055                  21.945
   161   1      14.164999999999999      16.109999999999999                  21.945
   162   2      14.164999999999999                  18.055                      20
   163   1      12.219999999999999      16.109999999999999      23.890000000000001
   164   2      12.219999999999999                  18.055      25.835000000000001
   165   2      14.164999999999999      16.109999999999999      25.835000000000001
   166   2      14.164999999999999                  18.055      23.890000000000001
   167   2      12.219999999999999      16.109999999999999      27.780000000000001
   168   1      12.219999999999999                  18.055      29.725000000000001
   169   1      14.164999999999999      16.109999999999999      29.725000000000001
   170   2      14.164999999999999                  18.055      27.780000000000001
   171   1      12.219999999999999      16.109999999999999      31.670000000000002
   172   1      14.164999999999999                  18.055      31.670000000000002
   173   1      14.164999999999999                      20      6.3849999999999998
   174   2      12.219999999999999                      20      8.3300000000000001
   175   1      12.219999999999999                  21.945      10.274999999999999
   176   2      14.164999999999999                      20      10.274999999999999
   177   2      14.164999999999999                  21.945      8.3300000000000001
   178   2      12.219999999999999                      20      12.219999999999999
   179   3      12.219999999999999                  21.945      14.164999999999999
   180   1      14.164999999999999                      20      14.164999999999999
   181   1      14.164999999999999                  21.945      12.219999999999999
   182   1      12.219999999999999                      20      16.109999999999999
   183   2      12.219999999999999                  21.945                  18.055
   184   2      14.164999999999999                      20                  18.055
   185   1      14.164999999999999                  21.945      16.109999999999999
   186   2      12.219999999999999                      20                      20
   187   1      12.219999999999999                  21.945                  21.945
   188   2      14.164999999999999                      20                  21.945
   189   2      14.164999999999999                  21.945                      20
   190   2      12.219999999999999                      20      23.890000000000001
   191   1      12.219999999999999                  21.945      25.835000000000001
   192   2      14.164999999999999                      20      25.835000000000001
   193   2      14.164999999999999                  21.945      23.890000000000001
   194   2      12.219999999999999                      20      27.780000000000001
   195   3      12.219999999999999                  21.945      29.725000000000001
   196   1      14.164999999999999                      20      29.725000000000001
   197   2      14.164999999999999                  21.945      27.780000000000001
   198   2      12.219999999999999                      20      31.670000000000002
   199   1      14.164999999999999                      20      33.615000000000002
   200   2      14.164999999999999                  21.945      31.670000000000002
   201   1      12.219999999999999      23.890000000000001      8.3300000000000001
   202   1      12.219999999999999      25.835000000000001      10.274999999999999
   203   1      14.164999999999999      23.890000000000001      10.274999999999999
   204   2      14.164999999999999      25.835000000000001      8.3300000000000001
   205   2      12.219999999999999      23.890000000000001      12.219999999999999
   206   2      12.219999999999999      25.835000000000001      14.164999999999999
   207   3      14.164999999999999      23.890000000000001      14.164999999999999
   208   2      14.164999999999999      25.835000000000001      12.219999999999999
   209   2      12.219999999999999      23.890000000000001      16.109999999999999
   210   2      12.219999999999999      25.835000000000001                  18.055
   211   1      14.164999999999999      23.890000000000001                  18.055
   212   2      14.164999999999999      25.835000000000001      16.109999999999999
   213   1      12.219999999999999      23.890000000000001                      20
   214   3      12.219999999999999      25.835000000000001                  21.945
   215   2      14.164999999999999      23.890000000000001                  21.945
   216   2      14.164999999999999      25.835000000000001                      20
   217   1      12.219999999999999      23.890000000000001      23.890000000000001
   218   2      12.219999999999999      25.835000000000001      25.835000000000001
   219   2      14.164999999999999      23.890000000000001      25.835000000000001
   220   3      14.164999999999999      25.835000000000001      23.890000000000001
   221   2      12.219999999999999      23.890000000000001      27.780000000000001
   222   2      12.219999999999999      25.835000000000001      29.725000000000001
   223   1      14.164999999999999      23.890000000000001      29.725000000000001
   224   2      14.164999999999999      25.835000000000001      27.780000000000001
   225   1      12.219999999999999      23.890000000000001      31.670000000000002
   226   1      14.164999999999999      25.835000000000001      31.670000000000002
   227   1      14.164999999999999      27.780000000000001      10.274999999999999
   228   1      12.219999999999999      27.780000000000001      12.219999999999999
   229   3      12.219999999999999      29.725000000000001      14.164999999999999
   230   2      14.164999999999999      27.780000000000001      14.164999999999999
   231   2      14.164999999999999      29.725000000000001      12.219999999999999
   232   2      12.219999999999999      27.780000000000001      16.109999999999999
   233   2      12.219999999999999      29.725000000000001                  18.055
   234   2      14.164999999999999      27.780000000000001                  18.055
   235   2      14.164999999999999      29.725000000000001      16.109999999999999
   236   1      12.219999999999999      27.780000000000001                      20
   237   3      12.219999999999999      29.725000000000001                  21.945
   238   1      14.164999999999999      27.780000000000001                  21.945
   239   2      14.164999999999999      29.725000000000001                      20
   240   1      12.219999999999999      27.780000000000001      23.890000000000001
   241   2      12.219999999999999      29.725000000000001      25.835000000000001
   242   3      14.164999999999999      27.780000000000001      25.835000000000001
   243   1      14.164999999999999      29.725000000000001      23.890000000000001
   244   1      12.219999999999999      27.780000000000001      27.780000000000001
   245   1      14.164999999999999      27.780000000000001      29.725000000000001
   246   2      14.164999999999999      29.725000000000001      27.780000000000001
   247   1      14.164999999999999      31.670000000000002      14.164999999999999
   248   1      12.219999999999999      31.670000000000002      16.109999999999999
   249   3      14.164999999999999      31.670000000000002                  18.055
   250   2      12.219999999999999      31.670000000000002                      20
   251   3      14.164999999999999      31.670000000000002                  21.945
   252   3      14.164999999999999      33.615000000000002                      20
   253   1      12.219999999999999      31.670000000000002      23.890000000000001
   254   3      14.164999999999999      31.670000000000002      25.835000000000001
   255   2      16.109999999999999      6.3849999999999998                  18.055
   256   1                  18.055      6.3849999999999998      16.109999999999999
   257   3      16.109999999999999      6.3849999999999998                  21.945
   258   3                  18.055      6.3849999999999998                      20
   259   1                  18.055      6.3849999999999998      23.890000000000001
   260   3      16.109999999999999      10.274999999999999      10.274999999999999
   261   2      16.109999999999999      8.3300000000000001      12.219999999999999
   262   3      16.109999999999999      10.274999999999999      14.164999999999999
   263   2                  18.055      8.3300000000000001      14.164999999999999
   264   3                  18.055      10.274999999999999      12.219999999999999
   265   1      16.109999999999999      8.3300000000000001      16.109999999999999
   266   1      16.109999999999999      10.274999999999999                  18.055
   267   3                  18.055      8.3300000000000001                  18.055
   268   1                  18.055      10.274999999999999      16.109999999999999
   269   3      16.109999999999999      8.3300000000000001                      20
   270   2      16.109999999999999      10.274999999999999                  21.945
   271   2                  18.055      8.3300000000000001                  21.945
   272   1                  18.055      10.274999999999999                      20
   273   1      16.109999999999999      8.3300000000000001      23.890000000000001
   274   1      16.109999999999999      10.274999999999999      25.835000000000001
   275   2                  18.055      8.3300000000000001      25.835000000000001
   276   3                  18.055      10.274999999999999      23.890000000000001
   277   1      16.109999999999999      8.3300000000000001      27.780000000000001
   278   3      16.109999999999999      10.274999999999999      29.725000000000001
   279   2                  18.055      10.274999999999999      27.780000000000001
   280   2      16.109999999999999      12.219999999999999      8.3300000000000001
   281   1      16.109999999999999      14.164999999999999      10.274999999999999
   282   2                  18.055      12.219999999999999      10.274999999999999
   283   2                  18.055      14.164999999999999      8.3300000000000001
   284   2      16.109999999999999      12.219999999999999      12.219999999999999
   285   2      16.109999999999999      14.164999999999999      14.164999999999999
   286   3                  18.055      12.219999999999999      14.164999999999999
   287   1                  18.055      14.164999999999999      12.219999999999999
   288   2      16.109999999999999      12.219999999999999      16.109999999999999
   289   1      16.109999999999999      14.164999999999999                  18.055
   290   2                  18.055      12.219999999999999                  18.055
   291   2                  18.055      14.164999999999999      16.109999999999999
   292   2      16.109999999999999      12.219999999999999                      20
   293   2      16.109999999999999      14.164999999999999                  21.945
   294   3                  18.055      12.219999999999999                  21.945
   295   1                  18.055      14.164999999999999                      20
   296   3      16.109999999999999      12.219999999999999      23.890000000000001
   297   3      16.109999999999999      14.164999999999999      25.835000000000001
   298   2                  18.055      12.219999999999999      25.835000000000001
   299   1                  18.055      14.164999999999999      23.890000000000001
   300   2      16.109999999999999      12.219999999999999      27.780000000000001
   301   1      16.109999999999999      14.164999999999999      29.725000000000001
   302   1                  18.055      12.219999999999999      29.725000000000001
   303   2                  18.055      14.164999999999999      27.780000000000001
   304   2      16.109999999999999      12.219999999999999      31.670000000000002
   305   1                  18.055      14.164999999999999      31.670000000000002
   306   3      16.109999999999999                  18.055      6.3849999999999998
   307   1                  18.055      16.109999999999999      6.3849999999999998
   308   1      16.109999999999999      16.109999999999999      8.3300000000000001
   309   2      16.109999999999999                  18.055      10.274999999999999
   310   2                  18.055      16.109999999999999      10.274999999999999
   311   1                  18.055                  18.055      8.3300000000000001
   312   1      16.109999999999999      16.109999999999999      12.219999999999999
   313   2      16.109999999999999                  18.055      14.164999999999999
   314   1                  18.055      16.109999999999999      14.164999999999999
   315   2                  18.055                  18.055      12.219999999999999
   316   2      16.109999999999999      16.109999999999999      16.109999999999999
   317   2      16.109999999999999                  18.055                  18.055
   318   3                  18.055      16.109999999999999                  18.055
   319   3                  18.055                  18.055      16.109999999999999
   320   2      16.109999999999999      16.109999999999999                      20
   321   2      16.109999999999999                  18.055                  21.945
   322   1                  18.055      16.109999999999999                  21.945
   323   3                  18.055                  18.055                      20
   324   3      16.109999999999999      16.109999999999999      23.890000000000001
   325   3      16.109999999999999                  18.055      25.835000000000001
   326   2                  18.055      16.109999999999999      25.835000000000001
   327   1                  18.055                  18.055      23.890000000000001
   328   1      16.109999999999999      16.109999999999999      27.780000000000001
   329   2      16.109999999999999                  18.055      29.725000000000001
   330   2                  18.055      16.109999999999999      29.725000000000001
   331   1                  18.055                  18.055      27.780000000000001
   332   2      16.109999999999999      16.109999999999999      31.670000000000002
   333   2      16.109999999999999                  18.055      33.615000000000002
   334   2                  18.055      16.109999999999999      33.615000000000002
   335   1                  18.055                  18.055      31.670000000000002
   336   1      16.109999999999999                  21.945      6.3849999999999998
   337   1                  18.055                      20      6.3849999999999998
   338   1      16.109999999999999                      20      8.3300000000000001
   339   1      16.109999999999999                  21.945      10.274999999999999
   340   1                  18.055                      20      10.274999999999999
   341   3                  18.055                  21.945      8.3300000000000001
   342   2      16.109999999999999                      20      12.219999999999999
   343   2      16.109999999999999                  21.945      14.164999999999999
   344   2                  18.055                      20      14.164999999999999
   345   1                  18.055                  21.945      12.219999999999999
   346   1      16.109999999999999                      20      16.109999999999999
   347   2      16.109999999999999                  21.945                  18.055
   348   1                  18.055                      20                  18.055
   349   1                  18.055                  21.945      16.109999999999999
   350   1      16.109999999999999                      20                      20
   351   1      16.109999999999999                  21.945                  21.945
   352   1                  18.055                      20                  21.945
   353   3                  18.055                  21.945                      20
   354   2      16.109999999999999                      20      23.890000000000001
   355   1      16.109999999999999                  21.945      25.835000000000001
   356   2                  18.055                      20      25.835000000000001
   357   1                  18.055                  21.945      23.890000000000001
   358   1      16.109999999999999                      20      27.780000000000001