/home/bill-peng/Projects/BNPs/TNP/RAL/PdPtAu30SP25RAL725RAL6.lmp (written by ASE) 

959 	 atoms 
3  atom types
0.0                      40  xlo xhi
0.0                      40  ylo yhi
0.0                      40  zlo zhi


Atoms 

     1   1      6.3849999999999998      14.164999999999999                      20
     2   1      6.3849999999999998      16.109999999999999                  18.055
     3   1      6.3849999999999998                  18.055      16.109999999999999
     4   2      6.3849999999999998      16.109999999999999                  21.945
     5   1      6.3849999999999998                  18.055                      20
     6   2      6.3849999999999998                  18.055      23.890000000000001
     7   1      6.3849999999999998                      20      14.164999999999999
     8   1      6.3849999999999998                      20                  18.055
     9   3      6.3849999999999998                  21.945      16.109999999999999
    10   2      6.3849999999999998                      20                  21.945
    11   1      6.3849999999999998                  21.945                      20
    12   3      6.3849999999999998                      20      25.835000000000001
    13   3      6.3849999999999998                  21.945      23.890000000000001
    14   2      6.3849999999999998      23.890000000000001                  18.055
    15   2      6.3849999999999998      23.890000000000001                  21.945
    16   1      6.3849999999999998      25.835000000000001                      20
    17   1      10.274999999999999      10.274999999999999      16.109999999999999
    18   3      10.274999999999999      10.274999999999999                      20
    19   3      10.274999999999999      10.274999999999999      23.890000000000001
    20   1      8.3300000000000001      14.164999999999999      14.164999999999999
    21   3      10.274999999999999      12.219999999999999      14.164999999999999
    22   3      10.274999999999999      14.164999999999999      12.219999999999999
    23   3      8.3300000000000001      12.219999999999999      16.109999999999999
    24   2      8.3300000000000001      14.164999999999999                  18.055
    25   3      10.274999999999999      12.219999999999999                  18.055
    26   2      10.274999999999999      14.164999999999999      16.109999999999999
    27   2      8.3300000000000001      12.219999999999999                      20
    28   3      8.3300000000000001      14.164999999999999                  21.945
    29   1      10.274999999999999      12.219999999999999                  21.945
    30   3      10.274999999999999      14.164999999999999                      20
    31   3      8.3300000000000001      12.219999999999999      23.890000000000001
    32   2      8.3300000000000001      14.164999999999999      25.835000000000001
    33   2      10.274999999999999      12.219999999999999      25.835000000000001
    34   2      10.274999999999999      14.164999999999999      23.890000000000001
    35   2      10.274999999999999      14.164999999999999      27.780000000000001
    36   3      10.274999999999999      16.109999999999999      10.274999999999999
    37   2      8.3300000000000001      16.109999999999999      12.219999999999999
    38   3      8.3300000000000001                  18.055      14.164999999999999
    39   3      10.274999999999999      16.109999999999999      14.164999999999999
    40   2      10.274999999999999                  18.055      12.219999999999999
    41   2      8.3300000000000001      16.109999999999999      16.109999999999999
    42   1      8.3300000000000001                  18.055                  18.055
    43   1      10.274999999999999      16.109999999999999                  18.055
    44   1      10.274999999999999                  18.055      16.109999999999999
    45   2      8.3300000000000001      16.109999999999999                      20
    46   3      8.3300000000000001                  18.055                  21.945
    47   1      10.274999999999999      16.109999999999999                  21.945
    48   2      10.274999999999999                  18.055                      20
    49   1      8.3300000000000001      16.109999999999999      23.890000000000001
    50   1      8.3300000000000001                  18.055      25.835000000000001
    51   1      10.274999999999999      16.109999999999999      25.835000000000001
    52   2      10.274999999999999                  18.055      23.890000000000001
    53   3      8.3300000000000001      16.109999999999999      27.780000000000001
    54   2      10.274999999999999      16.109999999999999      29.725000000000001
    55   2      10.274999999999999                  18.055      27.780000000000001
    56   2      10.274999999999999                      20      10.274999999999999
    57   1      8.3300000000000001                      20      12.219999999999999
    58   2      8.3300000000000001                  21.945      14.164999999999999
    59   1      10.274999999999999                      20      14.164999999999999
    60   3      10.274999999999999                  21.945      12.219999999999999
    61   3      8.3300000000000001                      20      16.109999999999999
    62   1      8.3300000000000001                  21.945                  18.055
    63   3      10.274999999999999                      20                  18.055
    64   2      10.274999999999999                  21.945      16.109999999999999
    65   3      8.3300000000000001                      20                      20
    66   2      8.3300000000000001                  21.945                  21.945
    67   3      10.274999999999999                      20                  21.945
    68   3      10.274999999999999                  21.945                      20
    69   2      8.3300000000000001                      20      23.890000000000001
    70   3      8.3300000000000001                  21.945      25.835000000000001
    71   3      10.274999999999999                      20      25.835000000000001
    72   1      10.274999999999999                  21.945      23.890000000000001
    73   1      8.3300000000000001                      20      27.780000000000001
    74   1      10.274999999999999                      20      29.725000000000001
    75   1      10.274999999999999                  21.945      27.780000000000001
    76   2      10.274999999999999      23.890000000000001      10.274999999999999
    77   3      8.3300000000000001      23.890000000000001      12.219999999999999
    78   2      8.3300000000000001      25.835000000000001      14.164999999999999
    79   2      10.274999999999999      23.890000000000001      14.164999999999999
    80   1      10.274999999999999      25.835000000000001      12.219999999999999
    81   3      8.3300000000000001      23.890000000000001      16.109999999999999
    82   2      8.3300000000000001      25.835000000000001                  18.055
    83   1      10.274999999999999      23.890000000000001                  18.055
    84   2      10.274999999999999      25.835000000000001      16.109999999999999
    85   3      8.3300000000000001      23.890000000000001                      20
    86   1      8.3300000000000001      25.835000000000001                  21.945
    87   2      10.274999999999999      23.890000000000001                  21.945
    88   1      10.274999999999999      25.835000000000001                      20
    89   3      8.3300000000000001      23.890000000000001      23.890000000000001
    90   2      8.3300000000000001      25.835000000000001      25.835000000000001
    91   1      10.274999999999999      23.890000000000001      25.835000000000001
    92   2      10.274999999999999      25.835000000000001      23.890000000000001
    93   3      8.3300000000000001      23.890000000000001      27.780000000000001
    94   3      10.274999999999999      23.890000000000001      29.725000000000001
    95   2      10.274999999999999      25.835000000000001      27.780000000000001
    96   3      10.274999999999999      27.780000000000001      14.164999999999999
    97   1      8.3300000000000001      27.780000000000001      16.109999999999999
    98   2      10.274999999999999      27.780000000000001                  18.055
    99   3      10.274999999999999      29.725000000000001      16.109999999999999
   100   3      8.3300000000000001      27.780000000000001                      20
   101   3      10.274999999999999      27.780000000000001                  21.945
   102   1      10.274999999999999      29.725000000000001                      20
   103   2      8.3300000000000001      27.780000000000001      23.890000000000001
   104   3      10.274999999999999      27.780000000000001      25.835000000000001
   105   3      10.274999999999999      29.725000000000001      23.890000000000001
   106   3      14.164999999999999      6.3849999999999998                      20
   107   3      12.219999999999999      10.274999999999999      14.164999999999999
   108   1      14.164999999999999      8.3300000000000001      14.164999999999999
   109   1      14.164999999999999      10.274999999999999      12.219999999999999
   110   1      12.219999999999999      8.3300000000000001      16.109999999999999
   111   2      12.219999999999999      10.274999999999999                  18.055
   112   3      14.164999999999999      8.3300000000000001                  18.055
   113   1      14.164999999999999      10.274999999999999      16.109999999999999
   114   3      12.219999999999999      8.3300000000000001                      20
   115   2      12.219999999999999      10.274999999999999                  21.945
   116   3      14.164999999999999      8.3300000000000001                  21.945
   117   2      14.164999999999999      10.274999999999999                      20
   118   2      12.219999999999999      8.3300000000000001      23.890000000000001
   119   1      12.219999999999999      10.274999999999999      25.835000000000001
   120   3      14.164999999999999      8.3300000000000001      25.835000000000001
   121   2      14.164999999999999      10.274999999999999      23.890000000000001
   122   2      14.164999999999999      10.274999999999999      27.780000000000001
   123   2      12.219999999999999      14.164999999999999      10.274999999999999
   124   1      14.164999999999999      12.219999999999999      10.274999999999999
   125   3      14.164999999999999      14.164999999999999      8.3300000000000001
   126   2      12.219999999999999      12.219999999999999      12.219999999999999
   127   2      12.219999999999999      14.164999999999999      14.164999999999999
   128   3      14.164999999999999      12.219999999999999      14.164999999999999
   129   3      14.164999999999999      14.164999999999999      12.219999999999999
   130   3      12.219999999999999      12.219999999999999      16.109999999999999
   131   2      12.219999999999999      14.164999999999999                  18.055
   132   3      14.164999999999999      12.219999999999999                  18.055
   133   1      14.164999999999999      14.164999999999999      16.109999999999999
   134   3      12.219999999999999      12.219999999999999                      20
   135   3      12.219999999999999      14.164999999999999                  21.945
   136   2      14.164999999999999      12.219999999999999                  21.945
   137   3      14.164999999999999      14.164999999999999                      20
   138   2      12.219999999999999      12.219999999999999      23.890000000000001
   139   3      12.219999999999999      14.164999999999999      25.835000000000001
   140   1      14.164999999999999      12.219999999999999      25.835000000000001
   141   1      14.164999999999999      14.164999999999999      23.890000000000001
   142   3      12.219999999999999      12.219999999999999      27.780000000000001
   143   2      12.219999999999999      14.164999999999999      29.725000000000001
   144   2      14.164999999999999      12.219999999999999      29.725000000000001
   145   3      14.164999999999999      14.164999999999999      27.780000000000001
   146   3      14.164999999999999      14.164999999999999      31.670000000000002
   147   3      12.219999999999999      16.109999999999999      8.3300000000000001
   148   1      12.219999999999999                  18.055      10.274999999999999
   149   1      14.164999999999999      16.109999999999999      10.274999999999999
   150   3      14.164999999999999                  18.055      8.3300000000000001
   151   3      12.219999999999999      16.109999999999999      12.219999999999999
   152   2      12.219999999999999                  18.055      14.164999999999999
   153   1      14.164999999999999      16.109999999999999      14.164999999999999
   154   2      14.164999999999999                  18.055      12.219999999999999
   155   2      12.219999999999999      16.109999999999999      16.109999999999999
   156   2      12.219999999999999                  18.055                  18.055
   157   3      14.164999999999999      16.109999999999999                  18.055
   158   1      14.164999999999999                  18.055      16.109999999999999
   159   3      12.219999999999999      16.109999999999999                      20
   160   1      12.219999999999999                  18.055                  21.945
   161   3      14.164999999999999      16.109999999999999                  21.945
   162   2      14.164999999999999                  18.055                      20
   163   1      12.219999999999999      16.109999999999999      23.890000000000001
   164   3      12.219999999999999                  18.055      25.835000000000001
   165   2      14.164999999999999      16.109999999999999      25.835000000000001
   166   1      14.164999999999999                  18.055      23.890000000000001
   167   1      12.219999999999999      16.109999999999999      27.780000000000001
   168   1      12.219999999999999                  18.055      29.725000000000001
   169   3      14.164999999999999      16.109999999999999      29.725000000000001
   170   3      14.164999999999999                  18.055      27.780000000000001
   171   1      12.219999999999999      16.109999999999999      31.670000000000002
   172   1      14.164999999999999                  18.055      31.670000000000002
   173   1      14.164999999999999                      20      6.3849999999999998
   174   2      12.219999999999999                      20      8.3300000000000001
   175   3      12.219999999999999                  21.945      10.274999999999999
   176   2      14.164999999999999                      20      10.274999999999999
   177   3      14.164999999999999                  21.945      8.3300000000000001
   178   1      12.219999999999999                      20      12.219999999999999
   179   2      12.219999999999999                  21.945      14.164999999999999
   180   2      14.164999999999999                      20      14.164999999999999
   181   1      14.164999999999999                  21.945      12.219999999999999
   182   1      12.219999999999999                      20      16.109999999999999
   183   2      12.219999999999999                  21.945                  18.055
   184   2      14.164999999999999                      20                  18.055
   185   1      14.164999999999999                  21.945      16.109999999999999
   186   1      12.219999999999999                      20                      20
   187   1      12.219999999999999                  21.945                  21.945
   188   2      14.164999999999999                      20                  21.945
   189   3      14.164999999999999                  21.945                      20
   190   2      12.219999999999999                      20      23.890000000000001
   191   1      12.219999999999999                  21.945      25.835000000000001
   192   2      14.164999999999999                      20      25.835000000000001
   193   2      14.164999999999999                  21.945      23.890000000000001
   194   3      12.219999999999999                      20      27.780000000000001
   195   2      12.219999999999999                  21.945      29.725000000000001
   196   1      14.164999999999999                      20      29.725000000000001
   197   3      14.164999999999999                  21.945      27.780000000000001
   198   2      12.219999999999999                      20      31.670000000000002
   199   3      14.164999999999999                      20      33.615000000000002
   200   2      14.164999999999999                  21.945      31.670000000000002
   201   3      12.219999999999999      23.890000000000001      8.3300000000000001
   202   1      12.219999999999999      25.835000000000001      10.274999999999999
   203   3      14.164999999999999      23.890000000000001      10.274999999999999
   204   3      14.164999999999999      25.835000000000001      8.3300000000000001
   205   2      12.219999999999999      23.890000000000001      12.219999999999999
   206   2      12.219999999999999      25.835000000000001      14.164999999999999
   207   2      14.164999999999999      23.890000000000001      14.164999999999999
   208   1      14.164999999999999      25.835000000000001      12.219999999999999
   209   1      12.219999999999999      23.890000000000001      16.109999999999999
   210   2      12.219999999999999      25.835000000000001                  18.055
   211   2      14.164999999999999      23.890000000000001                  18.055
   212   2      14.164999999999999      25.835000000000001      16.109999999999999
   213   1      12.219999999999999      23.890000000000001                      20
   214   3      12.219999999999999      25.835000000000001                  21.945
   215   1      14.164999999999999      23.890000000000001                  21.945
   216   1      14.164999999999999      25.835000000000001                      20
   217   2      12.219999999999999      23.890000000000001      23.890000000000001
   218   3      12.219999999999999      25.835000000000001      25.835000000000001
   219   2      14.164999999999999      23.890000000000001      25.835000000000001
   220   1      14.164999999999999      25.835000000000001      23.890000000000001
   221   3      12.219999999999999      23.890000000000001      27.780000000000001
   222   1      12.219999999999999      25.835000000000001      29.725000000000001
   223   1      14.164999999999999      23.890000000000001      29.725000000000001
   224   2      14.164999999999999      25.835000000000001      27.780000000000001
   225   1      12.219999999999999      23.890000000000001      31.670000000000002
   226   2      14.164999999999999      25.835000000000001      31.670000000000002
   227   2      14.164999999999999      27.780000000000001      10.274999999999999
   228   3      12.219999999999999      27.780000000000001      12.219999999999999
   229   1      12.219999999999999      29.725000000000001      14.164999999999999
   230   2      14.164999999999999      27.780000000000001      14.164999999999999
   231   1      14.164999999999999      29.725000000000001      12.219999999999999
   232   3      12.219999999999999      27.780000000000001      16.109999999999999
   233   3      12.219999999999999      29.725000000000001                  18.055
   234   1      14.164999999999999      27.780000000000001                  18.055
   235   3      14.164999999999999      29.725000000000001      16.109999999999999
   236   3      12.219999999999999      27.780000000000001                      20
   237   3      12.219999999999999      29.725000000000001                  21.945
   238   1      14.164999999999999      27.780000000000001                  21.945
   239   2      14.164999999999999      29.725000000000001                      20
   240   1      12.219999999999999      27.780000000000001      23.890000000000001
   241   3      12.219999999999999      29.725000000000001      25.835000000000001
   242   3      14.164999999999999      27.780000000000001      25.835000000000001
   243   1      14.164999999999999      29.725000000000001      23.890000000000001
   244   2      12.219999999999999      27.780000000000001      27.780000000000001
   245   1      14.164999999999999      27.780000000000001      29.725000000000001
   246   2      14.164999999999999      29.725000000000001      27.780000000000001
   247   1      14.164999999999999      31.670000000000002      14.164999999999999
   248   1      12.219999999999999      31.670000000000002      16.109999999999999
   249   3      14.164999999999999      31.670000000000002                  18.055
   250   3      12.219999999999999      31.670000000000002                      20
   251   1      14.164999999999999      31.670000000000002                  21.945
   252   3      14.164999999999999      33.615000000000002                      20
   253   3      12.219999999999999      31.670000000000002      23.890000000000001
   254   2      14.164999999999999      31.670000000000002      25.835000000000001
   255   3      16.109999999999999      6.3849999999999998                  18.055
   256   1                  18.055      6.3849999999999998      16.109999999999999
   257   2      16.109999999999999      6.3849999999999998                  21.945
   258   3                  18.055      6.3849999999999998                      20
   259   3                  18.055      6.3849999999999998      23.890000000000001
   260   1      16.109999999999999      10.274999999999999      10.274999999999999
   261   1      16.109999999999999      8.3300000000000001      12.219999999999999
   262   2      16.109999999999999      10.274999999999999      14.164999999999999
   263   3                  18.055      8.3300000000000001      14.164999999999999
   264   2                  18.055      10.274999999999999      12.219999999999999
   265   3      16.109999999999999      8.3300000000000001      16.109999999999999
   266   1      16.109999999999999      10.274999999999999                  18.055
   267   2                  18.055      8.3300000000000001                  18.055
   268   3                  18.055      10.274999999999999      16.109999999999999
   269   3      16.109999999999999      8.3300000000000001                      20
   270   1      16.109999999999999      10.274999999999999                  21.945
   271   3                  18.055      8.3300000000000001                  21.945
   272   1                  18.055      10.274999999999999                      20
   273   1      16.109999999999999      8.3300000000000001      23.890000000000001
   274   1      16.109999999999999      10.274999999999999      25.835000000000001
   275   1                  18.055      8.3300000000000001      25.835000000000001
   276   3                  18.055      10.274999999999999      23.890000000000001
   277   3      16.109999999999999      8.3300000000000001      27.780000000000001
   278   3      16.109999999999999      10.274999999999999      29.725000000000001
   279   3                  18.055      10.274999999999999      27.780000000000001
   280   3      16.109999999999999      12.219999999999999      8.3300000000000001
   281   1      16.109999999999999      14.164999999999999      10.274999999999999
   282   2                  18.055      12.219999999999999      10.274999999999999
   283   3                  18.055      14.164999999999999      8.3300000000000001
   284   3      16.109999999999999      12.219999999999999      12.219999999999999
   285   2      16.109999999999999      14.164999999999999      14.164999999999999
   286   2                  18.055      12.219999999999999      14.164999999999999
   287   3                  18.055      14.164999999999999      12.219999999999999
   288   3      16.109999999999999      12.219999999999999      16.109999999999999
   289   1      16.109999999999999      14.164999999999999                  18.055
   290   2                  18.055      12.219999999999999                  18.055
   291   3                  18.055      14.164999999999999      16.109999999999999
   292   3      16.109999999999999      12.219999999999999                      20
   293   3      16.109999999999999      14.164999999999999                  21.945
   294   3                  18.055      12.219999999999999                  21.945
   295   1                  18.055      14.164999999999999                      20
   296   1      16.109999999999999      12.219999999999999      23.890000000000001
   297   2      16.109999999999999      14.164999999999999      25.835000000000001
   298   3                  18.055      12.219999999999999      25.835000000000001
   299   2                  18.055      14.164999999999999      23.890000000000001
   300   3      16.109999999999999      12.219999999999999      27.780000000000001
   301   3      16.109999999999999      14.164999999999999      29.725000000000001
   302   3                  18.055      12.219999999999999      29.725000000000001
   303   2                  18.055      14.164999999999999      27.780000000000001
   304   3      16.109999999999999      12.219999999999999      31.670000000000002
   305   2                  18.055      14.164999999999999      31.670000000000002
   306   2      16.109999999999999                  18.055      6.3849999999999998
   307   1                  18.055      16.109999999999999      6.3849999999999998
   308   1      16.109999999999999      16.109999999999999      8.3300000000000001
   309   2      16.109999999999999                  18.055      10.274999999999999
   310   1                  18.055      16.109999999999999      10.274999999999999
   311   3                  18.055                  18.055      8.3300000000000001
   312   3      16.109999999999999      16.109999999999999      12.219999999999999
   313   3      16.109999999999999                  18.055      14.164999999999999
   314   1                  18.055      16.109999999999999      14.164999999999999
   315   2                  18.055                  18.055      12.219999999999999
   316   2      16.109999999999999      16.109999999999999      16.109999999999999
   317   3      16.109999999999999                  18.055                  18.055
   318   3                  18.055      16.109999999999999                  18.055
   319   3                  18.055                  18.055      16.109999999999999
   320   2      16.109999999999999      16.109999999999999                      20
   321   1      16.109999999999999                  18.055                  21.945
   322   1                  18.055      16.109999999999999                  21.945
   323   2                  18.055                  18.055                      20
   324   1      16.109999999999999      16.109999999999999      23.890000000000001
   325   1      16.109999999999999                  18.055      25.835000000000001
   326   3                  18.055      16.109999999999999      25.835000000000001
   327   1                  18.055                  18.055      23.890000000000001
   328   2      16.109999999999999      16.109999999999999      27.780000000000001
   329   3      16.109999999999999                  18.055      29.725000000000001
   330   1                  18.055      16.109999999999999      29.725000000000001
   331   3                  18.055                  18.055      27.780000000000001
   332   2      16.109999999999999      16.109999999999999      31.670000000000002
   333   1      16.109999999999999                  18.055      33.615000000000002
   334   1                  18.055      16.109999999999999      33.615000000000002
   335   2                  18.055                  18.055      31.670000000000002
   336   3      16.109999999999999                  21.945      6.3849999999999998
   337   3                  18.055                      20      6.3849999999999998
   338   3      16.109999999999999                      20      8.3300000000000001
   339   1      16.109999999999999                  21.945      10.274999999999999
   340   1                  18.055                      20      10.274999999999999
   341   3                  18.055                  21.945      8.3300000000000001
   342   3      16.109999999999999                      20      12.219999999999999
   343   1      16.109999999999999                  21.945      14.164999999999999
   344   3                  18.055                      20      14.164999999999999
   345   1                  18.055                  21.945      12.219999999999999
   346   2      16.109999999999999                      20      16.109999999999999
   347   1      16.109999999999999                  21.945                  18.055
   348   3                  18.055                      20                  18.055
   349   3                  18.055                  21.945      16.109999999999999
   350   2      16.109999999999999                      20                      20
   351   1      16.109999999999999                  21.945                  21.945
   352   1                  18.055                      20                  21.945
   353   1                  18.055                  21.945                      20
   354   1      16.109999999999999                      20      23.890000000000001
   355   1      16.109999999999999                  21.945      25.835000000000001
   356   3                  18.055                      20      25.835000000000001
   357   3                  18.055                  21.945      23.890000000000001
   358   3      16.109999999999999                      20      27.780000000000001