./TNP/RAL/PdPtAu30SP25RAL475RAL5.lmp (written by ASE) 

959 	 atoms 
3  atom types
0.0                      40  xlo xhi
0.0                      40  ylo yhi
0.0                      40  zlo zhi


Atoms 

     1   3      6.3849999999999998      14.164999999999999                      20
     2   1      6.3849999999999998      16.109999999999999                  18.055
     3   3      6.3849999999999998                  18.055      16.109999999999999
     4   1      6.3849999999999998      16.109999999999999                  21.945
     5   1      6.3849999999999998                  18.055                      20
     6   1      6.3849999999999998                  18.055      23.890000000000001
     7   1      6.3849999999999998                      20      14.164999999999999
     8   1      6.3849999999999998                      20                  18.055
     9   1      6.3849999999999998                  21.945      16.109999999999999
    10   2      6.3849999999999998                      20                  21.945
    11   3      6.3849999999999998                  21.945                      20
    12   1      6.3849999999999998                      20      25.835000000000001
    13   1      6.3849999999999998                  21.945      23.890000000000001
    14   3      6.3849999999999998      23.890000000000001                  18.055
    15   1      6.3849999999999998      23.890000000000001                  21.945
    16   1      6.3849999999999998      25.835000000000001                      20
    17   1      10.274999999999999      10.274999999999999      16.109999999999999
    18   1      10.274999999999999      10.274999999999999                      20
    19   1      10.274999999999999      10.274999999999999      23.890000000000001
    20   1      8.3300000000000001      14.164999999999999      14.164999999999999
    21   1      10.274999999999999      12.219999999999999      14.164999999999999
    22   1      10.274999999999999      14.164999999999999      12.219999999999999
    23   1      8.3300000000000001      12.219999999999999      16.109999999999999
    24   1      8.3300000000000001      14.164999999999999                  18.055
    25   1      10.274999999999999      12.219999999999999                  18.055
    26   2      10.274999999999999      14.164999999999999      16.109999999999999
    27   2      8.3300000000000001      12.219999999999999                      20
    28   1      8.3300000000000001      14.164999999999999                  21.945
    29   1      10.274999999999999      12.219999999999999                  21.945
    30   2      10.274999999999999      14.164999999999999                      20
    31   2      8.3300000000000001      12.219999999999999      23.890000000000001
    32   3      8.3300000000000001      14.164999999999999      25.835000000000001
    33   1      10.274999999999999      12.219999999999999      25.835000000000001
    34   1      10.274999999999999      14.164999999999999      23.890000000000001
    35   2      10.274999999999999      14.164999999999999      27.780000000000001
    36   1      10.274999999999999      16.109999999999999      10.274999999999999
    37   2      8.3300000000000001      16.109999999999999      12.219999999999999
    38   1      8.3300000000000001                  18.055      14.164999999999999
    39   1      10.274999999999999      16.109999999999999      14.164999999999999
    40   1      10.274999999999999                  18.055      12.219999999999999
    41   1      8.3300000000000001      16.109999999999999      16.109999999999999
    42   1      8.3300000000000001                  18.055                  18.055
    43   1      10.274999999999999      16.109999999999999                  18.055
    44   1      10.274999999999999                  18.055      16.109999999999999
    45   2      8.3300000000000001      16.109999999999999                      20
    46   1      8.3300000000000001                  18.055                  21.945
    47   1      10.274999999999999      16.109999999999999                  21.945
    48   1      10.274999999999999                  18.055                      20
    49   1      8.3300000000000001      16.109999999999999      23.890000000000001
    50   1      8.3300000000000001                  18.055      25.835000000000001
    51   1      10.274999999999999      16.109999999999999      25.835000000000001
    52   1      10.274999999999999                  18.055      23.890000000000001
    53   2      8.3300000000000001      16.109999999999999      27.780000000000001
    54   2      10.274999999999999      16.109999999999999      29.725000000000001
    55   2      10.274999999999999                  18.055      27.780000000000001
    56   1      10.274999999999999                      20      10.274999999999999
    57   1      8.3300000000000001                      20      12.219999999999999
    58   1      8.3300000000000001                  21.945      14.164999999999999
    59   1      10.274999999999999                      20      14.164999999999999
    60   1      10.274999999999999                  21.945      12.219999999999999
    61   1      8.3300000000000001                      20      16.109999999999999
    62   1      8.3300000000000001                  21.945                  18.055
    63   1      10.274999999999999                      20                  18.055
    64   1      10.274999999999999                  21.945      16.109999999999999
    65   1      8.3300000000000001                      20                      20
    66   3      8.3300000000000001                  21.945                  21.945
    67   1      10.274999999999999                      20                  21.945
    68   2      10.274999999999999                  21.945                      20
    69   1      8.3300000000000001                      20      23.890000000000001
    70   1      8.3300000000000001                  21.945      25.835000000000001
    71   2      10.274999999999999                      20      25.835000000000001
    72   3      10.274999999999999                  21.945      23.890000000000001
    73   1      8.3300000000000001                      20      27.780000000000001
    74   2      10.274999999999999                      20      29.725000000000001
    75   1      10.274999999999999                  21.945      27.780000000000001
    76   1      10.274999999999999      23.890000000000001      10.274999999999999
    77   1      8.3300000000000001      23.890000000000001      12.219999999999999
    78   1      8.3300000000000001      25.835000000000001      14.164999999999999
    79   1      10.274999999999999      23.890000000000001      14.164999999999999
    80   1      10.274999999999999      25.835000000000001      12.219999999999999
    81   1      8.3300000000000001      23.890000000000001      16.109999999999999
    82   2      8.3300000000000001      25.835000000000001                  18.055
    83   1      10.274999999999999      23.890000000000001                  18.055
    84   1      10.274999999999999      25.835000000000001      16.109999999999999
    85   2      8.3300000000000001      23.890000000000001                      20
    86   1      8.3300000000000001      25.835000000000001                  21.945
    87   1      10.274999999999999      23.890000000000001                  21.945
    88   1      10.274999999999999      25.835000000000001                      20
    89   1      8.3300000000000001      23.890000000000001      23.890000000000001
    90   3      8.3300000000000001      25.835000000000001      25.835000000000001
    91   1      10.274999999999999      23.890000000000001      25.835000000000001
    92   2      10.274999999999999      25.835000000000001      23.890000000000001
    93   1      8.3300000000000001      23.890000000000001      27.780000000000001
    94   1      10.274999999999999      23.890000000000001      29.725000000000001
    95   1      10.274999999999999      25.835000000000001      27.780000000000001
    96   1      10.274999999999999      27.780000000000001      14.164999999999999
    97   1      8.3300000000000001      27.780000000000001      16.109999999999999
    98   2      10.274999999999999      27.780000000000001                  18.055
    99   1      10.274999999999999      29.725000000000001      16.109999999999999
   100   1      8.3300000000000001      27.780000000000001                      20
   101   1      10.274999999999999      27.780000000000001                  21.945
   102   1      10.274999999999999      29.725000000000001                      20
   103   2      8.3300000000000001      27.780000000000001      23.890000000000001
   104   3      10.274999999999999      27.780000000000001      25.835000000000001
   105   1      10.274999999999999      29.725000000000001      23.890000000000001
   106   1      14.164999999999999      6.3849999999999998                      20
   107   1      12.219999999999999      10.274999999999999      14.164999999999999
   108   1      14.164999999999999      8.3300000000000001      14.164999999999999
   109   1      14.164999999999999      10.274999999999999      12.219999999999999
   110   1      12.219999999999999      8.3300000000000001      16.109999999999999
   111   1      12.219999999999999      10.274999999999999                  18.055
   112   1      14.164999999999999      8.3300000000000001                  18.055
   113   1      14.164999999999999      10.274999999999999      16.109999999999999
   114   2      12.219999999999999      8.3300000000000001                      20
   115   1      12.219999999999999      10.274999999999999                  21.945
   116   1      14.164999999999999      8.3300000000000001                  21.945
   117   1      14.164999999999999      10.274999999999999                      20
   118   1      12.219999999999999      8.3300000000000001      23.890000000000001
   119   1      12.219999999999999      10.274999999999999      25.835000000000001
   120   1      14.164999999999999      8.3300000000000001      25.835000000000001
   121   1      14.164999999999999      10.274999999999999      23.890000000000001
   122   1      14.164999999999999      10.274999999999999      27.780000000000001
   123   1      12.219999999999999      14.164999999999999      10.274999999999999
   124   1      14.164999999999999      12.219999999999999      10.274999999999999
   125   1      14.164999999999999      14.164999999999999      8.3300000000000001
   126   2      12.219999999999999      12.219999999999999      12.219999999999999
   127   2      12.219999999999999      14.164999999999999      14.164999999999999
   128   2      14.164999999999999      12.219999999999999      14.164999999999999
   129   1      14.164999999999999      14.164999999999999      12.219999999999999
   130   1      12.219999999999999      12.219999999999999      16.109999999999999
   131   2      12.219999999999999      14.164999999999999                  18.055
   132   1      14.164999999999999      12.219999999999999                  18.055
   133   1      14.164999999999999      14.164999999999999      16.109999999999999
   134   1      12.219999999999999      12.219999999999999                      20
   135   3      12.219999999999999      14.164999999999999                  21.945
   136   2      14.164999999999999      12.219999999999999                  21.945
   137   2      14.164999999999999      14.164999999999999                      20
   138   1      12.219999999999999      12.219999999999999      23.890000000000001
   139   2      12.219999999999999      14.164999999999999      25.835000000000001
   140   2      14.164999999999999      12.219999999999999      25.835000000000001
   141   1      14.164999999999999      14.164999999999999      23.890000000000001
   142   1      12.219999999999999      12.219999999999999      27.780000000000001
   143   1      12.219999999999999      14.164999999999999      29.725000000000001
   144   1      14.164999999999999      12.219999999999999      29.725000000000001
   145   2      14.164999999999999      14.164999999999999      27.780000000000001
   146   1      14.164999999999999      14.164999999999999      31.670000000000002
   147   1      12.219999999999999      16.109999999999999      8.3300000000000001
   148   1      12.219999999999999                  18.055      10.274999999999999
   149   1      14.164999999999999      16.109999999999999      10.274999999999999
   150   1      14.164999999999999                  18.055      8.3300000000000001
   151   1      12.219999999999999      16.109999999999999      12.219999999999999
   152   2      12.219999999999999                  18.055      14.164999999999999
   153   1      14.164999999999999      16.109999999999999      14.164999999999999
   154   1      14.164999999999999                  18.055      12.219999999999999
   155   1      12.219999999999999      16.109999999999999      16.109999999999999
   156   3      12.219999999999999                  18.055                  18.055
   157   3      14.164999999999999      16.109999999999999                  18.055
   158   1      14.164999999999999                  18.055      16.109999999999999
   159   1      12.219999999999999      16.109999999999999                      20
   160   1      12.219999999999999                  18.055                  21.945
   161   1      14.164999999999999      16.109999999999999                  21.945
   162   1      14.164999999999999                  18.055                      20
   163   1      12.219999999999999      16.109999999999999      23.890000000000001
   164   1      12.219999999999999                  18.055      25.835000000000001
   165   1      14.164999999999999      16.109999999999999      25.835000000000001
   166   1      14.164999999999999                  18.055      23.890000000000001
   167   1      12.219999999999999      16.109999999999999      27.780000000000001
   168   2      12.219999999999999                  18.055      29.725000000000001
   169   1      14.164999999999999      16.109999999999999      29.725000000000001
   170   1      14.164999999999999                  18.055      27.780000000000001
   171   1      12.219999999999999      16.109999999999999      31.670000000000002
   172   1      14.164999999999999                  18.055      31.670000000000002
   173   3      14.164999999999999                      20      6.3849999999999998
   174   1      12.219999999999999                      20      8.3300000000000001
   175   1      12.219999999999999                  21.945      10.274999999999999
   176   1      14.164999999999999                      20      10.274999999999999
   177   1      14.164999999999999                  21.945      8.3300000000000001
   178   1      12.219999999999999                      20      12.219999999999999
   179   1      12.219999999999999                  21.945      14.164999999999999
   180   1      14.164999999999999                      20      14.164999999999999
   181   2      14.164999999999999                  21.945      12.219999999999999
   182   1      12.219999999999999                      20      16.109999999999999
   183   2      12.219999999999999                  21.945                  18.055
   184   1      14.164999999999999                      20                  18.055
   185   1      14.164999999999999                  21.945      16.109999999999999
   186   1      12.219999999999999                      20                      20
   187   1      12.219999999999999                  21.945                  21.945
   188   1      14.164999999999999                      20                  21.945
   189   1      14.164999999999999                  21.945                      20
   190   1      12.219999999999999                      20      23.890000000000001
   191   1      12.219999999999999                  21.945      25.835000000000001
   192   1      14.164999999999999                      20      25.835000000000001
   193   1      14.164999999999999                  21.945      23.890000000000001
   194   1      12.219999999999999                      20      27.780000000000001
   195   1      12.219999999999999                  21.945      29.725000000000001
   196   1      14.164999999999999                      20      29.725000000000001
   197   1      14.164999999999999                  21.945      27.780000000000001
   198   1      12.219999999999999                      20      31.670000000000002
   199   3      14.164999999999999                      20      33.615000000000002
   200   2      14.164999999999999                  21.945      31.670000000000002
   201   1      12.219999999999999      23.890000000000001      8.3300000000000001
   202   2      12.219999999999999      25.835000000000001      10.274999999999999
   203   3      14.164999999999999      23.890000000000001      10.274999999999999
   204   2      14.164999999999999      25.835000000000001      8.3300000000000001
   205   1      12.219999999999999      23.890000000000001      12.219999999999999
   206   1      12.219999999999999      25.835000000000001      14.164999999999999
   207   1      14.164999999999999      23.890000000000001      14.164999999999999
   208   1      14.164999999999999      25.835000000000001      12.219999999999999
   209   1      12.219999999999999      23.890000000000001      16.109999999999999
   210   2      12.219999999999999      25.835000000000001                  18.055
   211   1      14.164999999999999      23.890000000000001                  18.055
   212   1      14.164999999999999      25.835000000000001      16.109999999999999
   213   1      12.219999999999999      23.890000000000001                      20
   214   1      12.219999999999999      25.835000000000001                  21.945
   215   1      14.164999999999999      23.890000000000001                  21.945
   216   2      14.164999999999999      25.835000000000001                      20
   217   1      12.219999999999999      23.890000000000001      23.890000000000001
   218   1      12.219999999999999      25.835000000000001      25.835000000000001
   219   1      14.164999999999999      23.890000000000001      25.835000000000001
   220   3      14.164999999999999      25.835000000000001      23.890000000000001
   221   2      12.219999999999999      23.890000000000001      27.780000000000001
   222   1      12.219999999999999      25.835000000000001      29.725000000000001
   223   1      14.164999999999999      23.890000000000001      29.725000000000001
   224   1      14.164999999999999      25.835000000000001      27.780000000000001
   225   1      12.219999999999999      23.890000000000001      31.670000000000002
   226   3      14.164999999999999      25.835000000000001      31.670000000000002
   227   1      14.164999999999999      27.780000000000001      10.274999999999999
   228   2      12.219999999999999      27.780000000000001      12.219999999999999
   229   2      12.219999999999999      29.725000000000001      14.164999999999999
   230   1      14.164999999999999      27.780000000000001      14.164999999999999
   231   3      14.164999999999999      29.725000000000001      12.219999999999999
   232   1      12.219999999999999      27.780000000000001      16.109999999999999
   233   2      12.219999999999999      29.725000000000001                  18.055
   234   1      14.164999999999999      27.780000000000001                  18.055
   235   1      14.164999999999999      29.725000000000001      16.109999999999999
   236   1      12.219999999999999      27.780000000000001                      20
   237   1      12.219999999999999      29.725000000000001                  21.945
   238   1      14.164999999999999      27.780000000000001                  21.945
   239   1      14.164999999999999      29.725000000000001                      20
   240   1      12.219999999999999      27.780000000000001      23.890000000000001
   241   1      12.219999999999999      29.725000000000001      25.835000000000001
   242   1      14.164999999999999      27.780000000000001      25.835000000000001
   243   1      14.164999999999999      29.725000000000001      23.890000000000001
   244   1      12.219999999999999      27.780000000000001      27.780000000000001
   245   2      14.164999999999999      27.780000000000001      29.725000000000001
   246   2      14.164999999999999      29.725000000000001      27.780000000000001
   247   1      14.164999999999999      31.670000000000002      14.164999999999999
   248   2      12.219999999999999      31.670000000000002      16.109999999999999
   249   2      14.164999999999999      31.670000000000002                  18.055
   250   1      12.219999999999999      31.670000000000002                      20
   251   1      14.164999999999999      31.670000000000002                  21.945
   252   2      14.164999999999999      33.615000000000002                      20
   253   1      12.219999999999999      31.670000000000002      23.890000000000001
   254   1      14.164999999999999      31.670000000000002      25.835000000000001
   255   1      16.109999999999999      6.3849999999999998                  18.055
   256   1                  18.055      6.3849999999999998      16.109999999999999
   257   1      16.109999999999999      6.3849999999999998                  21.945
   258   1                  18.055      6.3849999999999998                      20
   259   2                  18.055      6.3849999999999998      23.890000000000001
   260   1      16.109999999999999      10.274999999999999      10.274999999999999
   261   1      16.109999999999999      8.3300000000000001      12.219999999999999
   262   1      16.109999999999999      10.274999999999999      14.164999999999999
   263   2                  18.055      8.3300000000000001      14.164999999999999
   264   1                  18.055      10.274999999999999      12.219999999999999
   265   1      16.109999999999999      8.3300000000000001      16.109999999999999
   266   1      16.109999999999999      10.274999999999999                  18.055
   267   1                  18.055      8.3300000000000001                  18.055
   268   1                  18.055      10.274999999999999      16.109999999999999
   269   1      16.109999999999999      8.3300000000000001                      20
   270   1      16.109999999999999      10.274999999999999                  21.945
   271   1                  18.055      8.3300000000000001                  21.945
   272   1                  18.055      10.274999999999999                      20
   273   1      16.109999999999999      8.3300000000000001      23.890000000000001
   274   1      16.109999999999999      10.274999999999999      25.835000000000001
   275   1                  18.055      8.3300000000000001      25.835000000000001
   276   1                  18.055      10.274999999999999      23.890000000000001
   277   1      16.109999999999999      8.3300000000000001      27.780000000000001
   278   3      16.109999999999999      10.274999999999999      29.725000000000001
   279   3                  18.055      10.274999999999999      27.780000000000001
   280   3      16.109999999999999      12.219999999999999      8.3300000000000001
   281   1      16.109999999999999      14.164999999999999      10.274999999999999
   282   1                  18.055      12.219999999999999      10.274999999999999
   283   2                  18.055      14.164999999999999      8.3300000000000001
   284   1      16.109999999999999      12.219999999999999      12.219999999999999
   285   2      16.109999999999999      14.164999999999999      14.164999999999999
   286   1                  18.055      12.219999999999999      14.164999999999999
   287   1                  18.055      14.164999999999999      12.219999999999999
   288   1      16.109999999999999      12.219999999999999      16.109999999999999
   289   1      16.109999999999999      14.164999999999999                  18.055
   290   3                  18.055      12.219999999999999                  18.055
   291   1                  18.055      14.164999999999999      16.109999999999999
   292   2      16.109999999999999      12.219999999999999                      20
   293   2      16.109999999999999      14.164999999999999                  21.945
   294   1                  18.055      12.219999999999999                  21.945
   295   1                  18.055      14.164999999999999                      20
   296   1      16.109999999999999      12.219999999999999      23.890000000000001
   297   2      16.109999999999999      14.164999999999999      25.835000000000001
   298   1                  18.055      12.219999999999999      25.835000000000001
   299   1                  18.055      14.164999999999999      23.890000000000001
   300   1      16.109999999999999      12.219999999999999      27.780000000000001
   301   1      16.109999999999999      14.164999999999999      29.725000000000001
   302   1                  18.055      12.219999999999999      29.725000000000001
   303   2                  18.055      14.164999999999999      27.780000000000001
   304   1      16.109999999999999      12.219999999999999      31.670000000000002
   305   1                  18.055      14.164999999999999      31.670000000000002
   306   1      16.109999999999999                  18.055      6.3849999999999998
   307   1                  18.055      16.109999999999999      6.3849999999999998
   308   1      16.109999999999999      16.109999999999999      8.3300000000000001
   309   2      16.109999999999999                  18.055      10.274999999999999
   310   3                  18.055      16.109999999999999      10.274999999999999
   311   1                  18.055                  18.055      8.3300000000000001
   312   1      16.109999999999999      16.109999999999999      12.219999999999999
   313   2      16.109999999999999                  18.055      14.164999999999999
   314   1                  18.055      16.109999999999999      14.164999999999999
   315   1                  18.055                  18.055      12.219999999999999
   316   2      16.109999999999999      16.109999999999999      16.109999999999999
   317   3      16.109999999999999                  18.055                  18.055
   318   1                  18.055      16.109999999999999                  18.055
   319   2                  18.055                  18.055      16.109999999999999
   320   1      16.109999999999999      16.109999999999999                      20
   321   1      16.109999999999999                  18.055                  21.945
   322   1                  18.055      16.109999999999999                  21.945
   323   1                  18.055                  18.055                      20
   324   1      16.109999999999999      16.109999999999999      23.890000000000001
   325   1      16.109999999999999                  18.055      25.835000000000001
   326   1                  18.055      16.109999999999999      25.835000000000001
   327   1                  18.055                  18.055      23.890000000000001
   328   3      16.109999999999999      16.109999999999999      27.780000000000001
   329   1      16.109999999999999                  18.055      29.725000000000001
   330   1                  18.055      16.109999999999999      29.725000000000001
   331   1                  18.055                  18.055      27.780000000000001
   332   1      16.109999999999999      16.109999999999999      31.670000000000002
   333   1      16.109999999999999                  18.055      33.615000000000002
   334   1                  18.055      16.109999999999999      33.615000000000002
   335   1                  18.055                  18.055      31.670000000000002
   336   1      16.109999999999999                  21.945      6.3849999999999998
   337   1                  18.055                      20      6.3849999999999998
   338   2      16.109999999999999                      20      8.3300000000000001
   339   1      16.109999999999999                  21.945      10.274999999999999
   340   1                  18.055                      20      10.274999999999999
   341   2                  18.055                  21.945      8.3300000000000001
   342   1      16.109999999999999                      20      12.219999999999999
   343   1      16.109999999999999                  21.945      14.164999999999999
   344   2                  18.055                      20      14.164999999999999
   345   1                  18.055                  21.945      12.219999999999999
   346   1      16.109999999999999                      20      16.109999999999999
   347   1      16.109999999999999                  21.945                  18.055
   348   1                  18.055                      20                  18.055
   349   1                  18.055                  21.945      16.109999999999999
   350   1      16.109999999999999                      20                      20
   351   1      16.109999999999999                  21.945                  21.945
   352   2                  18.055                      20                  21.945
   353   1                  18.055                  21.945                      20
   354   1      16.109999999999999                      20      23.890000000000001
   355   1      16.109999999999999                  21.945      25.835000000000001
   356   1                  18.055                      20      25.835000000000001
   357   1                  18.055                  21.945      23.890000000000001
   358   1      16.109999999999999                      20      27.780000000000001