/home/bill-peng/Projects/BNPs/TNP/RAL/PtAuPd30SP25RAL025RAL4.lmp (written by ASE) 

959 	 atoms 
3  atom types
0.0                      40  xlo xhi
0.0                      40  ylo yhi
0.0                      40  zlo zhi


Atoms 

     1   2      6.2800000000000011      14.120000000000001                      20
     2   1      6.2800000000000011      16.079999999999998      18.039999999999999
     3   2      6.2800000000000011      18.039999999999999      16.079999999999998
     4   1      6.2800000000000011      16.079999999999998      21.960000000000001
     5   2      6.2800000000000011      18.039999999999999                      20
     6   2      6.2800000000000011      18.039999999999999      23.920000000000002
     7   2      6.2800000000000011                      20      14.120000000000001
     8   3      6.2800000000000011                      20      18.039999999999999
     9   3      6.2800000000000011      21.960000000000001      16.079999999999998
    10   1      6.2800000000000011                      20      21.960000000000001
    11   2      6.2800000000000011      21.960000000000001                      20
    12   1      6.2800000000000011                      20      25.880000000000003
    13   1      6.2800000000000011      21.960000000000001      23.920000000000002
    14   2      6.2800000000000011      23.920000000000002      18.039999999999999
    15   1      6.2800000000000011      23.920000000000002      21.960000000000001
    16   2      6.2800000000000011      25.880000000000003                      20
    17   1      10.199999999999999      10.199999999999999      16.079999999999998
    18   3      10.199999999999999      10.199999999999999                      20
    19   2      10.199999999999999      10.199999999999999      23.920000000000002
    20   2      8.2400000000000002      14.120000000000001      14.120000000000001
    21   1      10.199999999999999                   12.16      14.120000000000001
    22   3      10.199999999999999      14.120000000000001                   12.16
    23   1      8.2400000000000002                   12.16      16.079999999999998
    24   1      8.2400000000000002      14.120000000000001      18.039999999999999
    25   2      10.199999999999999                   12.16      18.039999999999999
    26   2      10.199999999999999      14.120000000000001      16.079999999999998
    27   1      8.2400000000000002                   12.16                      20
    28   3      8.2400000000000002      14.120000000000001      21.960000000000001
    29   1      10.199999999999999                   12.16      21.960000000000001
    30   2      10.199999999999999      14.120000000000001                      20
    31   3      8.2400000000000002                   12.16      23.920000000000002
    32   1      8.2400000000000002      14.120000000000001      25.880000000000003
    33   3      10.199999999999999                   12.16      25.880000000000003
    34   2      10.199999999999999      14.120000000000001      23.920000000000002
    35   1      10.199999999999999      14.120000000000001                   27.84
    36   1      10.199999999999999      16.079999999999998      10.199999999999999
    37   3      8.2400000000000002      16.079999999999998                   12.16
    38   3      8.2400000000000002      18.039999999999999      14.120000000000001
    39   3      10.199999999999999      16.079999999999998      14.120000000000001
    40   1      10.199999999999999      18.039999999999999                   12.16
    41   1      8.2400000000000002      16.079999999999998      16.079999999999998
    42   1      8.2400000000000002      18.039999999999999      18.039999999999999
    43   2      10.199999999999999      16.079999999999998      18.039999999999999
    44   3      10.199999999999999      18.039999999999999      16.079999999999998
    45   3      8.2400000000000002      16.079999999999998                      20
    46   1      8.2400000000000002      18.039999999999999      21.960000000000001
    47   2      10.199999999999999      16.079999999999998      21.960000000000001
    48   3      10.199999999999999      18.039999999999999                      20
    49   1      8.2400000000000002      16.079999999999998      23.920000000000002
    50   2      8.2400000000000002      18.039999999999999      25.880000000000003
    51   1      10.199999999999999      16.079999999999998      25.880000000000003
    52   1      10.199999999999999      18.039999999999999      23.920000000000002
    53   3      8.2400000000000002      16.079999999999998                   27.84
    54   1      10.199999999999999      16.079999999999998      29.800000000000001
    55   3      10.199999999999999      18.039999999999999                   27.84
    56   1      10.199999999999999                      20      10.199999999999999
    57   2      8.2400000000000002                      20                   12.16
    58   1      8.2400000000000002      21.960000000000001      14.120000000000001
    59   2      10.199999999999999                      20      14.120000000000001
    60   2      10.199999999999999      21.960000000000001                   12.16
    61   2      8.2400000000000002                      20      16.079999999999998
    62   1      8.2400000000000002      21.960000000000001      18.039999999999999
    63   3      10.199999999999999                      20      18.039999999999999
    64   1      10.199999999999999      21.960000000000001      16.079999999999998
    65   2      8.2400000000000002                      20                      20
    66   2      8.2400000000000002      21.960000000000001      21.960000000000001
    67   3      10.199999999999999                      20      21.960000000000001
    68   1      10.199999999999999      21.960000000000001                      20
    69   1      8.2400000000000002                      20      23.920000000000002
    70   1      8.2400000000000002      21.960000000000001      25.880000000000003
    71   1      10.199999999999999                      20      25.880000000000003
    72   2      10.199999999999999      21.960000000000001      23.920000000000002
    73   3      8.2400000000000002                      20                   27.84
    74   1      10.199999999999999                      20      29.800000000000001
    75   2      10.199999999999999      21.960000000000001                   27.84
    76   1      10.199999999999999      23.920000000000002      10.199999999999999
    77   1      8.2400000000000002      23.920000000000002                   12.16
    78   1      8.2400000000000002      25.880000000000003      14.120000000000001
    79   2      10.199999999999999      23.920000000000002      14.120000000000001
    80   3      10.199999999999999      25.880000000000003                   12.16
    81   1      8.2400000000000002      23.920000000000002      16.079999999999998
    82   1      8.2400000000000002      25.880000000000003      18.039999999999999
    83   3      10.199999999999999      23.920000000000002      18.039999999999999
    84   2      10.199999999999999      25.880000000000003      16.079999999999998
    85   1      8.2400000000000002      23.920000000000002                      20
    86   2      8.2400000000000002      25.880000000000003      21.960000000000001
    87   1      10.199999999999999      23.920000000000002      21.960000000000001
    88   2      10.199999999999999      25.880000000000003                      20
    89   2      8.2400000000000002      23.920000000000002      23.920000000000002
    90   2      8.2400000000000002      25.880000000000003      25.880000000000003
    91   1      10.199999999999999      23.920000000000002      25.880000000000003
    92   1      10.199999999999999      25.880000000000003      23.920000000000002
    93   3      8.2400000000000002      23.920000000000002                   27.84
    94   2      10.199999999999999      23.920000000000002      29.800000000000001
    95   1      10.199999999999999      25.880000000000003                   27.84
    96   2      10.199999999999999                   27.84      14.120000000000001
    97   1      8.2400000000000002                   27.84      16.079999999999998
    98   1      10.199999999999999                   27.84      18.039999999999999
    99   3      10.199999999999999      29.800000000000001      16.079999999999998
   100   2      8.2400000000000002                   27.84                      20
   101   3      10.199999999999999                   27.84      21.960000000000001
   102   1      10.199999999999999      29.800000000000001                      20
   103   1      8.2400000000000002                   27.84      23.920000000000002
   104   3      10.199999999999999                   27.84      25.880000000000003
   105   2      10.199999999999999      29.800000000000001      23.920000000000002
   106   1      14.120000000000001      6.2800000000000011                      20
   107   1                   12.16      10.199999999999999      14.120000000000001
   108   1      14.120000000000001      8.2400000000000002      14.120000000000001
   109   1      14.120000000000001      10.199999999999999                   12.16
   110   2                   12.16      8.2400000000000002      16.079999999999998
   111   1                   12.16      10.199999999999999      18.039999999999999
   112   3      14.120000000000001      8.2400000000000002      18.039999999999999
   113   2      14.120000000000001      10.199999999999999      16.079999999999998
   114   1                   12.16      8.2400000000000002                      20
   115   2                   12.16      10.199999999999999      21.960000000000001
   116   2      14.120000000000001      8.2400000000000002      21.960000000000001
   117   2      14.120000000000001      10.199999999999999                      20
   118   2                   12.16      8.2400000000000002      23.920000000000002
   119   3                   12.16      10.199999999999999      25.880000000000003
   120   1      14.120000000000001      8.2400000000000002      25.880000000000003
   121   1      14.120000000000001      10.199999999999999      23.920000000000002
   122   2      14.120000000000001      10.199999999999999                   27.84
   123   2                   12.16      14.120000000000001      10.199999999999999
   124   3      14.120000000000001                   12.16      10.199999999999999
   125   3      14.120000000000001      14.120000000000001      8.2400000000000002
   126   1                   12.16                   12.16                   12.16
   127   3                   12.16      14.120000000000001      14.120000000000001
   128   2      14.120000000000001                   12.16      14.120000000000001
   129   1      14.120000000000001      14.120000000000001                   12.16
   130   1                   12.16                   12.16      16.079999999999998
   131   1                   12.16      14.120000000000001      18.039999999999999
   132   3      14.120000000000001                   12.16      18.039999999999999
   133   1      14.120000000000001      14.120000000000001      16.079999999999998
   134   3                   12.16                   12.16                      20
   135   1                   12.16      14.120000000000001      21.960000000000001
   136   1      14.120000000000001                   12.16      21.960000000000001
   137   2      14.120000000000001      14.120000000000001                      20
   138   3                   12.16                   12.16      23.920000000000002
   139   1                   12.16      14.120000000000001      25.880000000000003
   140   1      14.120000000000001                   12.16      25.880000000000003
   141   1      14.120000000000001      14.120000000000001      23.920000000000002
   142   1                   12.16                   12.16                   27.84
   143   1                   12.16      14.120000000000001      29.800000000000001
   144   2      14.120000000000001                   12.16      29.800000000000001
   145   3      14.120000000000001      14.120000000000001                   27.84
   146   1      14.120000000000001      14.120000000000001      31.759999999999998
   147   3                   12.16      16.079999999999998      8.2400000000000002
   148   3                   12.16      18.039999999999999      10.199999999999999
   149   2      14.120000000000001      16.079999999999998      10.199999999999999
   150   1      14.120000000000001      18.039999999999999      8.2400000000000002
   151   1                   12.16      16.079999999999998                   12.16
   152   2                   12.16      18.039999999999999      14.120000000000001
   153   1      14.120000000000001      16.079999999999998      14.120000000000001
   154   3      14.120000000000001      18.039999999999999                   12.16
   155   2                   12.16      16.079999999999998      16.079999999999998
   156   3                   12.16      18.039999999999999      18.039999999999999
   157   2      14.120000000000001      16.079999999999998      18.039999999999999
   158   3      14.120000000000001      18.039999999999999      16.079999999999998
   159   2                   12.16      16.079999999999998                      20
   160   3                   12.16      18.039999999999999      21.960000000000001
   161   2      14.120000000000001      16.079999999999998      21.960000000000001
   162   3      14.120000000000001      18.039999999999999                      20
   163   1                   12.16      16.079999999999998      23.920000000000002
   164   1                   12.16      18.039999999999999      25.880000000000003
   165   2      14.120000000000001      16.079999999999998      25.880000000000003
   166   2      14.120000000000001      18.039999999999999      23.920000000000002
   167   2                   12.16      16.079999999999998                   27.84
   168   1                   12.16      18.039999999999999      29.800000000000001
   169   1      14.120000000000001      16.079999999999998      29.800000000000001
   170   2      14.120000000000001      18.039999999999999                   27.84
   171   1                   12.16      16.079999999999998      31.759999999999998
   172   2      14.120000000000001      18.039999999999999      31.759999999999998
   173   1      14.120000000000001                      20      6.2800000000000011
   174   1                   12.16                      20      8.2400000000000002
   175   2                   12.16      21.960000000000001      10.199999999999999
   176   1      14.120000000000001                      20      10.199999999999999
   177   2      14.120000000000001      21.960000000000001      8.2400000000000002
   178   3                   12.16                      20                   12.16
   179   1                   12.16      21.960000000000001      14.120000000000001
   180   2      14.120000000000001                      20      14.120000000000001
   181   3      14.120000000000001      21.960000000000001                   12.16
   182   2                   12.16                      20      16.079999999999998
   183   3                   12.16      21.960000000000001      18.039999999999999
   184   1      14.120000000000001                      20      18.039999999999999
   185   2      14.120000000000001      21.960000000000001      16.079999999999998
   186   3                   12.16                      20                      20
   187   1                   12.16      21.960000000000001      21.960000000000001
   188   1      14.120000000000001                      20      21.960000000000001
   189   3      14.120000000000001      21.960000000000001                      20
   190   1                   12.16                      20      23.920000000000002
   191   2                   12.16      21.960000000000001      25.880000000000003
   192   1      14.120000000000001                      20      25.880000000000003
   193   2      14.120000000000001      21.960000000000001      23.920000000000002
   194   1                   12.16                      20                   27.84
   195   2                   12.16      21.960000000000001      29.800000000000001
   196   1      14.120000000000001                      20      29.800000000000001
   197   2      14.120000000000001      21.960000000000001                   27.84
   198   2                   12.16                      20      31.759999999999998
   199   2      14.120000000000001                      20      33.719999999999999
   200   1      14.120000000000001      21.960000000000001      31.759999999999998
   201   2                   12.16      23.920000000000002      8.2400000000000002
   202   1                   12.16      25.880000000000003      10.199999999999999
   203   1      14.120000000000001      23.920000000000002      10.199999999999999
   204   1      14.120000000000001      25.880000000000003      8.2400000000000002
   205   1                   12.16      23.920000000000002                   12.16
   206   1                   12.16      25.880000000000003      14.120000000000001
   207   1      14.120000000000001      23.920000000000002      14.120000000000001
   208   1      14.120000000000001      25.880000000000003                   12.16
   209   3                   12.16      23.920000000000002      16.079999999999998
   210   2                   12.16      25.880000000000003      18.039999999999999
   211   3      14.120000000000001      23.920000000000002      18.039999999999999
   212   1      14.120000000000001      25.880000000000003      16.079999999999998
   213   3                   12.16      23.920000000000002                      20
   214   3                   12.16      25.880000000000003      21.960000000000001
   215   2      14.120000000000001      23.920000000000002      21.960000000000001
   216   2      14.120000000000001      25.880000000000003                      20
   217   1                   12.16      23.920000000000002      23.920000000000002
   218   2                   12.16      25.880000000000003      25.880000000000003
   219   1      14.120000000000001      23.920000000000002      25.880000000000003
   220   2      14.120000000000001      25.880000000000003      23.920000000000002
   221   3                   12.16      23.920000000000002                   27.84
   222   2                   12.16      25.880000000000003      29.800000000000001
   223   2      14.120000000000001      23.920000000000002      29.800000000000001
   224   2      14.120000000000001      25.880000000000003                   27.84
   225   2                   12.16      23.920000000000002      31.759999999999998
   226   2      14.120000000000001      25.880000000000003      31.759999999999998
   227   1      14.120000000000001                   27.84      10.199999999999999
   228   3                   12.16                   27.84                   12.16
   229   1                   12.16      29.800000000000001      14.120000000000001
   230   3      14.120000000000001                   27.84      14.120000000000001
   231   3      14.120000000000001      29.800000000000001                   12.16
   232   3                   12.16                   27.84      16.079999999999998
   233   2                   12.16      29.800000000000001      18.039999999999999
   234   1      14.120000000000001                   27.84      18.039999999999999
   235   1      14.120000000000001      29.800000000000001      16.079999999999998
   236   1                   12.16                   27.84                      20
   237   1                   12.16      29.800000000000001      21.960000000000001
   238   1      14.120000000000001                   27.84      21.960000000000001
   239   1      14.120000000000001      29.800000000000001                      20
   240   1                   12.16                   27.84      23.920000000000002
   241   3                   12.16      29.800000000000001      25.880000000000003
   242   1      14.120000000000001                   27.84      25.880000000000003
   243   3      14.120000000000001      29.800000000000001      23.920000000000002
   244   1                   12.16                   27.84                   27.84
   245   1      14.120000000000001                   27.84      29.800000000000001
   246   1      14.120000000000001      29.800000000000001                   27.84
   247   2      14.120000000000001      31.759999999999998      14.120000000000001
   248   1                   12.16      31.759999999999998      16.079999999999998
   249   1      14.120000000000001      31.759999999999998      18.039999999999999
   250   1                   12.16      31.759999999999998                      20
   251   2      14.120000000000001      31.759999999999998      21.960000000000001
   252   2      14.120000000000001      33.719999999999999                      20
   253   1                   12.16      31.759999999999998      23.920000000000002
   254   1      14.120000000000001      31.759999999999998      25.880000000000003
   255   3      16.079999999999998      6.2800000000000011      18.039999999999999
   256   1      18.039999999999999      6.2800000000000011      16.079999999999998
   257   1      16.079999999999998      6.2800000000000011      21.960000000000001
   258   1      18.039999999999999      6.2800000000000011                      20
   259   3      18.039999999999999      6.2800000000000011      23.920000000000002
   260   1      16.079999999999998      10.199999999999999      10.199999999999999
   261   1      16.079999999999998      8.2400000000000002                   12.16
   262   1      16.079999999999998      10.199999999999999      14.120000000000001
   263   2      18.039999999999999      8.2400000000000002      14.120000000000001
   264   3      18.039999999999999      10.199999999999999                   12.16
   265   1      16.079999999999998      8.2400000000000002      16.079999999999998
   266   3      16.079999999999998      10.199999999999999      18.039999999999999
   267   2      18.039999999999999      8.2400000000000002      18.039999999999999
   268   2      18.039999999999999      10.199999999999999      16.079999999999998
   269   3      16.079999999999998      8.2400000000000002                      20
   270   1      16.079999999999998      10.199999999999999      21.960000000000001
   271   3      18.039999999999999      8.2400000000000002      21.960000000000001
   272   2      18.039999999999999      10.199999999999999                      20
   273   1      16.079999999999998      8.2400000000000002      23.920000000000002
   274   3      16.079999999999998      10.199999999999999      25.880000000000003
   275   3      18.039999999999999      8.2400000000000002      25.880000000000003
   276   3      18.039999999999999      10.199999999999999      23.920000000000002
   277   3      16.079999999999998      8.2400000000000002                   27.84
   278   1      16.079999999999998      10.199999999999999      29.800000000000001
   279   2      18.039999999999999      10.199999999999999                   27.84
   280   2      16.079999999999998                   12.16      8.2400000000000002
   281   3      16.079999999999998      14.120000000000001      10.199999999999999
   282   2      18.039999999999999                   12.16      10.199999999999999
   283   1      18.039999999999999      14.120000000000001      8.2400000000000002
   284   3      16.079999999999998                   12.16                   12.16
   285   1      16.079999999999998      14.120000000000001      14.120000000000001
   286   1      18.039999999999999                   12.16      14.120000000000001
   287   2      18.039999999999999      14.120000000000001                   12.16
   288   2      16.079999999999998                   12.16      16.079999999999998
   289   1      16.079999999999998      14.120000000000001      18.039999999999999
   290   2      18.039999999999999                   12.16      18.039999999999999
   291   1      18.039999999999999      14.120000000000001      16.079999999999998
   292   3      16.079999999999998                   12.16                      20
   293   3      16.079999999999998      14.120000000000001      21.960000000000001
   294   1      18.039999999999999                   12.16      21.960000000000001
   295   1      18.039999999999999      14.120000000000001                      20
   296   1      16.079999999999998                   12.16      23.920000000000002
   297   1      16.079999999999998      14.120000000000001      25.880000000000003
   298   3      18.039999999999999                   12.16      25.880000000000003
   299   3      18.039999999999999      14.120000000000001      23.920000000000002
   300   1      16.079999999999998                   12.16                   27.84
   301   1      16.079999999999998      14.120000000000001      29.800000000000001
   302   1      18.039999999999999                   12.16      29.800000000000001
   303   1      18.039999999999999      14.120000000000001                   27.84
   304   1      16.079999999999998                   12.16      31.759999999999998
   305   2      18.039999999999999      14.120000000000001      31.759999999999998
   306   1      16.079999999999998      18.039999999999999      6.2800000000000011
   307   1      18.039999999999999      16.079999999999998      6.2800000000000011
   308   1      16.079999999999998      16.079999999999998      8.2400000000000002
   309   1      16.079999999999998      18.039999999999999      10.199999999999999
   310   3      18.039999999999999      16.079999999999998      10.199999999999999
   311   2      18.039999999999999      18.039999999999999      8.2400000000000002
   312   2      16.079999999999998      16.079999999999998                   12.16
   313   1      16.079999999999998      18.039999999999999      14.120000000000001
   314   1      18.039999999999999      16.079999999999998      14.120000000000001
   315   1      18.039999999999999      18.039999999999999                   12.16
   316   1      16.079999999999998      16.079999999999998      16.079999999999998
   317   1      16.079999999999998      18.039999999999999      18.039999999999999
   318   3      18.039999999999999      16.079999999999998      18.039999999999999
   319   3      18.039999999999999      18.039999999999999      16.079999999999998
   320   1      16.079999999999998      16.079999999999998                      20
   321   2      16.079999999999998      18.039999999999999      21.960000000000001
   322   1      18.039999999999999      16.079999999999998      21.960000000000001
   323   2      18.039999999999999      18.039999999999999                      20
   324   2      16.079999999999998      16.079999999999998      23.920000000000002
   325   1      16.079999999999998      18.039999999999999      25.880000000000003
   326   1      18.039999999999999      16.079999999999998      25.880000000000003
   327   2      18.039999999999999      18.039999999999999      23.920000000000002
   328   2      16.079999999999998      16.079999999999998                   27.84
   329   3      16.079999999999998      18.039999999999999      29.800000000000001
   330   2      18.039999999999999      16.079999999999998      29.800000000000001
   331   2      18.039999999999999      18.039999999999999                   27.84
   332   3      16.079999999999998      16.079999999999998      31.759999999999998
   333   2      16.079999999999998      18.039999999999999      33.719999999999999
   334   1      18.039999999999999      16.079999999999998      33.719999999999999
   335   2      18.039999999999999      18.039999999999999      31.759999999999998
   336   3      16.079999999999998      21.960000000000001      6.2800000000000011
   337   1      18.039999999999999                      20      6.2800000000000011
   338   1      16.079999999999998                      20      8.2400000000000002
   339   2      16.079999999999998      21.960000000000001      10.199999999999999
   340   1      18.039999999999999                      20      10.199999999999999
   341   1      18.039999999999999      21.960000000000001      8.2400000000000002
   342   2      16.079999999999998                      20                   12.16
   343   1      16.079999999999998      21.960000000000001      14.120000000000001
   344   3      18.039999999999999                      20      14.120000000000001
   345   3      18.039999999999999      21.960000000000001                   12.16
   346   1      16.079999999999998                      20      16.079999999999998
   347   1      16.079999999999998      21.960000000000001      18.039999999999999
   348   2      18.039999999999999                      20      18.039999999999999
   349   1      18.039999999999999      21.960000000000001      16.079999999999998
   350   3      16.079999999999998                      20                      20
   351   3      16.079999999999998      21.960000000000001      21.960000000000001
   352   1      18.039999999999999                      20      21.960000000000001
   353   1      18.039999999999999      21.960000000000001                      20
   354   2      16.079999999999998                      20      23.920000000000002
   355   1      16.079999999999998      21.960000000000001      25.880000000000003
   356   1      18.039999999999999                      20      25.880000000000003
   357   2      18.039999999999999      21.960000000000001      23.920000000000002
   358   3      16.079999999999998                      20                   27.84