/home/bill-peng/Projects/BNPs/TNP/RAL/PtAuPd30SP25RAL825RAL1.lmp (written by ASE) 

959 	 atoms 
3  atom types
0.0                      40  xlo xhi
0.0                      40  ylo yhi
0.0                      40  zlo zhi


Atoms 

     1   3      6.2800000000000011      14.120000000000001                      20
     2   3      6.2800000000000011      16.079999999999998      18.039999999999999
     3   3      6.2800000000000011      18.039999999999999      16.079999999999998
     4   1      6.2800000000000011      16.079999999999998      21.960000000000001
     5   1      6.2800000000000011      18.039999999999999                      20
     6   1      6.2800000000000011      18.039999999999999      23.920000000000002
     7   1      6.2800000000000011                      20      14.120000000000001
     8   2      6.2800000000000011                      20      18.039999999999999
     9   2      6.2800000000000011      21.960000000000001      16.079999999999998
    10   1      6.2800000000000011                      20      21.960000000000001
    11   3      6.2800000000000011      21.960000000000001                      20
    12   1      6.2800000000000011                      20      25.880000000000003
    13   3      6.2800000000000011      21.960000000000001      23.920000000000002
    14   2      6.2800000000000011      23.920000000000002      18.039999999999999
    15   1      6.2800000000000011      23.920000000000002      21.960000000000001
    16   1      6.2800000000000011      25.880000000000003                      20
    17   1      10.199999999999999      10.199999999999999      16.079999999999998
    18   1      10.199999999999999      10.199999999999999                      20
    19   1      10.199999999999999      10.199999999999999      23.920000000000002
    20   3      8.2400000000000002      14.120000000000001      14.120000000000001
    21   2      10.199999999999999                   12.16      14.120000000000001
    22   3      10.199999999999999      14.120000000000001                   12.16
    23   1      8.2400000000000002                   12.16      16.079999999999998
    24   2      8.2400000000000002      14.120000000000001      18.039999999999999
    25   2      10.199999999999999                   12.16      18.039999999999999
    26   2      10.199999999999999      14.120000000000001      16.079999999999998
    27   1      8.2400000000000002                   12.16                      20
    28   2      8.2400000000000002      14.120000000000001      21.960000000000001
    29   1      10.199999999999999                   12.16      21.960000000000001
    30   2      10.199999999999999      14.120000000000001                      20
    31   1      8.2400000000000002                   12.16      23.920000000000002
    32   2      8.2400000000000002      14.120000000000001      25.880000000000003
    33   2      10.199999999999999                   12.16      25.880000000000003
    34   3      10.199999999999999      14.120000000000001      23.920000000000002
    35   3      10.199999999999999      14.120000000000001                   27.84
    36   1      10.199999999999999      16.079999999999998      10.199999999999999
    37   1      8.2400000000000002      16.079999999999998                   12.16
    38   2      8.2400000000000002      18.039999999999999      14.120000000000001
    39   3      10.199999999999999      16.079999999999998      14.120000000000001
    40   1      10.199999999999999      18.039999999999999                   12.16
    41   2      8.2400000000000002      16.079999999999998      16.079999999999998
    42   1      8.2400000000000002      18.039999999999999      18.039999999999999
    43   3      10.199999999999999      16.079999999999998      18.039999999999999
    44   2      10.199999999999999      18.039999999999999      16.079999999999998
    45   1      8.2400000000000002      16.079999999999998                      20
    46   3      8.2400000000000002      18.039999999999999      21.960000000000001
    47   2      10.199999999999999      16.079999999999998      21.960000000000001
    48   1      10.199999999999999      18.039999999999999                      20
    49   1      8.2400000000000002      16.079999999999998      23.920000000000002
    50   1      8.2400000000000002      18.039999999999999      25.880000000000003
    51   1      10.199999999999999      16.079999999999998      25.880000000000003
    52   1      10.199999999999999      18.039999999999999      23.920000000000002
    53   2      8.2400000000000002      16.079999999999998                   27.84
    54   1      10.199999999999999      16.079999999999998      29.800000000000001
    55   1      10.199999999999999      18.039999999999999                   27.84
    56   1      10.199999999999999                      20      10.199999999999999
    57   1      8.2400000000000002                      20                   12.16
    58   3      8.2400000000000002      21.960000000000001      14.120000000000001
    59   3      10.199999999999999                      20      14.120000000000001
    60   1      10.199999999999999      21.960000000000001                   12.16
    61   1      8.2400000000000002                      20      16.079999999999998
    62   1      8.2400000000000002      21.960000000000001      18.039999999999999
    63   1      10.199999999999999                      20      18.039999999999999
    64   1      10.199999999999999      21.960000000000001      16.079999999999998
    65   1      8.2400000000000002                      20                      20
    66   1      8.2400000000000002      21.960000000000001      21.960000000000001
    67   2      10.199999999999999                      20      21.960000000000001
    68   1      10.199999999999999      21.960000000000001                      20
    69   2      8.2400000000000002                      20      23.920000000000002
    70   1      8.2400000000000002      21.960000000000001      25.880000000000003
    71   2      10.199999999999999                      20      25.880000000000003
    72   1      10.199999999999999      21.960000000000001      23.920000000000002
    73   2      8.2400000000000002                      20                   27.84
    74   2      10.199999999999999                      20      29.800000000000001
    75   3      10.199999999999999      21.960000000000001                   27.84
    76   1      10.199999999999999      23.920000000000002      10.199999999999999
    77   2      8.2400000000000002      23.920000000000002                   12.16
    78   1      8.2400000000000002      25.880000000000003      14.120000000000001
    79   1      10.199999999999999      23.920000000000002      14.120000000000001
    80   1      10.199999999999999      25.880000000000003                   12.16
    81   2      8.2400000000000002      23.920000000000002      16.079999999999998
    82   1      8.2400000000000002      25.880000000000003      18.039999999999999
    83   2      10.199999999999999      23.920000000000002      18.039999999999999
    84   1      10.199999999999999      25.880000000000003      16.079999999999998
    85   1      8.2400000000000002      23.920000000000002                      20
    86   2      8.2400000000000002      25.880000000000003      21.960000000000001
    87   3      10.199999999999999      23.920000000000002      21.960000000000001
    88   2      10.199999999999999      25.880000000000003                      20
    89   3      8.2400000000000002      23.920000000000002      23.920000000000002
    90   2      8.2400000000000002      25.880000000000003      25.880000000000003
    91   1      10.199999999999999      23.920000000000002      25.880000000000003
    92   2      10.199999999999999      25.880000000000003      23.920000000000002
    93   1      8.2400000000000002      23.920000000000002                   27.84
    94   3      10.199999999999999      23.920000000000002      29.800000000000001
    95   3      10.199999999999999      25.880000000000003                   27.84
    96   1      10.199999999999999                   27.84      14.120000000000001
    97   2      8.2400000000000002                   27.84      16.079999999999998
    98   1      10.199999999999999                   27.84      18.039999999999999
    99   2      10.199999999999999      29.800000000000001      16.079999999999998
   100   3      8.2400000000000002                   27.84                      20
   101   1      10.199999999999999                   27.84      21.960000000000001
   102   3      10.199999999999999      29.800000000000001                      20
   103   2      8.2400000000000002                   27.84      23.920000000000002
   104   2      10.199999999999999                   27.84      25.880000000000003
   105   1      10.199999999999999      29.800000000000001      23.920000000000002
   106   3      14.120000000000001      6.2800000000000011                      20
   107   1                   12.16      10.199999999999999      14.120000000000001
   108   2      14.120000000000001      8.2400000000000002      14.120000000000001
   109   3      14.120000000000001      10.199999999999999                   12.16
   110   2                   12.16      8.2400000000000002      16.079999999999998
   111   1                   12.16      10.199999999999999      18.039999999999999
   112   2      14.120000000000001      8.2400000000000002      18.039999999999999
   113   2      14.120000000000001      10.199999999999999      16.079999999999998
   114   1                   12.16      8.2400000000000002                      20
   115   2                   12.16      10.199999999999999      21.960000000000001
   116   2      14.120000000000001      8.2400000000000002      21.960000000000001
   117   1      14.120000000000001      10.199999999999999                      20
   118   3                   12.16      8.2400000000000002      23.920000000000002
   119   2                   12.16      10.199999999999999      25.880000000000003
   120   1      14.120000000000001      8.2400000000000002      25.880000000000003
   121   1      14.120000000000001      10.199999999999999      23.920000000000002
   122   1      14.120000000000001      10.199999999999999                   27.84
   123   2                   12.16      14.120000000000001      10.199999999999999
   124   1      14.120000000000001                   12.16      10.199999999999999
   125   2      14.120000000000001      14.120000000000001      8.2400000000000002
   126   1                   12.16                   12.16                   12.16
   127   1                   12.16      14.120000000000001      14.120000000000001
   128   2      14.120000000000001                   12.16      14.120000000000001
   129   1      14.120000000000001      14.120000000000001                   12.16
   130   3                   12.16                   12.16      16.079999999999998
   131   1                   12.16      14.120000000000001      18.039999999999999
   132   2      14.120000000000001                   12.16      18.039999999999999
   133   3      14.120000000000001      14.120000000000001      16.079999999999998
   134   1                   12.16                   12.16                      20
   135   2                   12.16      14.120000000000001      21.960000000000001
   136   1      14.120000000000001                   12.16      21.960000000000001
   137   2      14.120000000000001      14.120000000000001                      20
   138   1                   12.16                   12.16      23.920000000000002
   139   2                   12.16      14.120000000000001      25.880000000000003
   140   1      14.120000000000001                   12.16      25.880000000000003
   141   2      14.120000000000001      14.120000000000001      23.920000000000002
   142   1                   12.16                   12.16                   27.84
   143   3                   12.16      14.120000000000001      29.800000000000001
   144   1      14.120000000000001                   12.16      29.800000000000001
   145   2      14.120000000000001      14.120000000000001                   27.84
   146   3      14.120000000000001      14.120000000000001      31.759999999999998
   147   3                   12.16      16.079999999999998      8.2400000000000002
   148   2                   12.16      18.039999999999999      10.199999999999999
   149   1      14.120000000000001      16.079999999999998      10.199999999999999
   150   2      14.120000000000001      18.039999999999999      8.2400000000000002
   151   1                   12.16      16.079999999999998                   12.16
   152   1                   12.16      18.039999999999999      14.120000000000001
   153   1      14.120000000000001      16.079999999999998      14.120000000000001
   154   1      14.120000000000001      18.039999999999999                   12.16
   155   1                   12.16      16.079999999999998      16.079999999999998
   156   2                   12.16      18.039999999999999      18.039999999999999
   157   2      14.120000000000001      16.079999999999998      18.039999999999999
   158   1      14.120000000000001      18.039999999999999      16.079999999999998
   159   1                   12.16      16.079999999999998                      20
   160   2                   12.16      18.039999999999999      21.960000000000001
   161   1      14.120000000000001      16.079999999999998      21.960000000000001
   162   1      14.120000000000001      18.039999999999999                      20
   163   1                   12.16      16.079999999999998      23.920000000000002
   164   1                   12.16      18.039999999999999      25.880000000000003
   165   2      14.120000000000001      16.079999999999998      25.880000000000003
   166   2      14.120000000000001      18.039999999999999      23.920000000000002
   167   1                   12.16      16.079999999999998                   27.84
   168   1                   12.16      18.039999999999999      29.800000000000001
   169   1      14.120000000000001      16.079999999999998      29.800000000000001
   170   1      14.120000000000001      18.039999999999999                   27.84
   171   3                   12.16      16.079999999999998      31.759999999999998
   172   2      14.120000000000001      18.039999999999999      31.759999999999998
   173   1      14.120000000000001                      20      6.2800000000000011
   174   1                   12.16                      20      8.2400000000000002
   175   2                   12.16      21.960000000000001      10.199999999999999
   176   1      14.120000000000001                      20      10.199999999999999
   177   1      14.120000000000001      21.960000000000001      8.2400000000000002
   178   2                   12.16                      20                   12.16
   179   3                   12.16      21.960000000000001      14.120000000000001
   180   3      14.120000000000001                      20      14.120000000000001
   181   1      14.120000000000001      21.960000000000001                   12.16
   182   1                   12.16                      20      16.079999999999998
   183   2                   12.16      21.960000000000001      18.039999999999999
   184   3      14.120000000000001                      20      18.039999999999999
   185   2      14.120000000000001      21.960000000000001      16.079999999999998
   186   3                   12.16                      20                      20
   187   1                   12.16      21.960000000000001      21.960000000000001
   188   1      14.120000000000001                      20      21.960000000000001
   189   1      14.120000000000001      21.960000000000001                      20
   190   2                   12.16                      20      23.920000000000002
   191   3                   12.16      21.960000000000001      25.880000000000003
   192   3      14.120000000000001                      20      25.880000000000003
   193   1      14.120000000000001      21.960000000000001      23.920000000000002
   194   2                   12.16                      20                   27.84
   195   1                   12.16      21.960000000000001      29.800000000000001
   196   2      14.120000000000001                      20      29.800000000000001
   197   1      14.120000000000001      21.960000000000001                   27.84
   198   1                   12.16                      20      31.759999999999998
   199   1      14.120000000000001                      20      33.719999999999999
   200   1      14.120000000000001      21.960000000000001      31.759999999999998
   201   3                   12.16      23.920000000000002      8.2400000000000002
   202   1                   12.16      25.880000000000003      10.199999999999999
   203   2      14.120000000000001      23.920000000000002      10.199999999999999
   204   1      14.120000000000001      25.880000000000003      8.2400000000000002
   205   3                   12.16      23.920000000000002                   12.16
   206   1                   12.16      25.880000000000003      14.120000000000001
   207   1      14.120000000000001      23.920000000000002      14.120000000000001
   208   1      14.120000000000001      25.880000000000003                   12.16
   209   2                   12.16      23.920000000000002      16.079999999999998
   210   3                   12.16      25.880000000000003      18.039999999999999
   211   1      14.120000000000001      23.920000000000002      18.039999999999999
   212   2      14.120000000000001      25.880000000000003      16.079999999999998
   213   3                   12.16      23.920000000000002                      20
   214   3                   12.16      25.880000000000003      21.960000000000001
   215   3      14.120000000000001      23.920000000000002      21.960000000000001
   216   2      14.120000000000001      25.880000000000003                      20
   217   3                   12.16      23.920000000000002      23.920000000000002
   218   2                   12.16      25.880000000000003      25.880000000000003
   219   2      14.120000000000001      23.920000000000002      25.880000000000003
   220   1      14.120000000000001      25.880000000000003      23.920000000000002
   221   3                   12.16      23.920000000000002                   27.84
   222   2                   12.16      25.880000000000003      29.800000000000001
   223   3      14.120000000000001      23.920000000000002      29.800000000000001
   224   2      14.120000000000001      25.880000000000003                   27.84
   225   3                   12.16      23.920000000000002      31.759999999999998
   226   1      14.120000000000001      25.880000000000003      31.759999999999998
   227   1      14.120000000000001                   27.84      10.199999999999999
   228   2                   12.16                   27.84                   12.16
   229   2                   12.16      29.800000000000001      14.120000000000001
   230   2      14.120000000000001                   27.84      14.120000000000001
   231   1      14.120000000000001      29.800000000000001                   12.16
   232   1                   12.16                   27.84      16.079999999999998
   233   2                   12.16      29.800000000000001      18.039999999999999
   234   3      14.120000000000001                   27.84      18.039999999999999
   235   1      14.120000000000001      29.800000000000001      16.079999999999998
   236   1                   12.16                   27.84                      20
   237   1                   12.16      29.800000000000001      21.960000000000001
   238   1      14.120000000000001                   27.84      21.960000000000001
   239   3      14.120000000000001      29.800000000000001                      20
   240   2                   12.16                   27.84      23.920000000000002
   241   2                   12.16      29.800000000000001      25.880000000000003
   242   3      14.120000000000001                   27.84      25.880000000000003
   243   1      14.120000000000001      29.800000000000001      23.920000000000002
   244   1                   12.16                   27.84                   27.84
   245   1      14.120000000000001                   27.84      29.800000000000001
   246   1      14.120000000000001      29.800000000000001                   27.84
   247   3      14.120000000000001      31.759999999999998      14.120000000000001
   248   1                   12.16      31.759999999999998      16.079999999999998
   249   1      14.120000000000001      31.759999999999998      18.039999999999999
   250   2                   12.16      31.759999999999998                      20
   251   1      14.120000000000001      31.759999999999998      21.960000000000001
   252   2      14.120000000000001      33.719999999999999                      20
   253   2                   12.16      31.759999999999998      23.920000000000002
   254   2      14.120000000000001      31.759999999999998      25.880000000000003
   255   1      16.079999999999998      6.2800000000000011      18.039999999999999
   256   1      18.039999999999999      6.2800000000000011      16.079999999999998
   257   3      16.079999999999998      6.2800000000000011      21.960000000000001
   258   1      18.039999999999999      6.2800000000000011                      20
   259   2      18.039999999999999      6.2800000000000011      23.920000000000002
   260   1      16.079999999999998      10.199999999999999      10.199999999999999
   261   2      16.079999999999998      8.2400000000000002                   12.16
   262   2      16.079999999999998      10.199999999999999      14.120000000000001
   263   2      18.039999999999999      8.2400000000000002      14.120000000000001
   264   2      18.039999999999999      10.199999999999999                   12.16
   265   2      16.079999999999998      8.2400000000000002      16.079999999999998
   266   2      16.079999999999998      10.199999999999999      18.039999999999999
   267   1      18.039999999999999      8.2400000000000002      18.039999999999999
   268   3      18.039999999999999      10.199999999999999      16.079999999999998
   269   1      16.079999999999998      8.2400000000000002                      20
   270   3      16.079999999999998      10.199999999999999      21.960000000000001
   271   2      18.039999999999999      8.2400000000000002      21.960000000000001
   272   2      18.039999999999999      10.199999999999999                      20
   273   1      16.079999999999998      8.2400000000000002      23.920000000000002
   274   3      16.079999999999998      10.199999999999999      25.880000000000003
   275   2      18.039999999999999      8.2400000000000002      25.880000000000003
   276   1      18.039999999999999      10.199999999999999      23.920000000000002
   277   2      16.079999999999998      8.2400000000000002                   27.84
   278   2      16.079999999999998      10.199999999999999      29.800000000000001
   279   1      18.039999999999999      10.199999999999999                   27.84
   280   1      16.079999999999998                   12.16      8.2400000000000002
   281   2      16.079999999999998      14.120000000000001      10.199999999999999
   282   2      18.039999999999999                   12.16      10.199999999999999
   283   1      18.039999999999999      14.120000000000001      8.2400000000000002
   284   1      16.079999999999998                   12.16                   12.16
   285   3      16.079999999999998      14.120000000000001      14.120000000000001
   286   2      18.039999999999999                   12.16      14.120000000000001
   287   3      18.039999999999999      14.120000000000001                   12.16
   288   1      16.079999999999998                   12.16      16.079999999999998
   289   1      16.079999999999998      14.120000000000001      18.039999999999999
   290   3      18.039999999999999                   12.16      18.039999999999999
   291   1      18.039999999999999      14.120000000000001      16.079999999999998
   292   2      16.079999999999998                   12.16                      20
   293   3      16.079999999999998      14.120000000000001      21.960000000000001
   294   1      18.039999999999999                   12.16      21.960000000000001
   295   3      18.039999999999999      14.120000000000001                      20
   296   1      16.079999999999998                   12.16      23.920000000000002
   297   1      16.079999999999998      14.120000000000001      25.880000000000003
   298   2      18.039999999999999                   12.16      25.880000000000003
   299   2      18.039999999999999      14.120000000000001      23.920000000000002
   300   1      16.079999999999998                   12.16                   27.84
   301   2      16.079999999999998      14.120000000000001      29.800000000000001
   302   2      18.039999999999999                   12.16      29.800000000000001
   303   1      18.039999999999999      14.120000000000001                   27.84
   304   1      16.079999999999998                   12.16      31.759999999999998
   305   1      18.039999999999999      14.120000000000001      31.759999999999998
   306   1      16.079999999999998      18.039999999999999      6.2800000000000011
   307   3      18.039999999999999      16.079999999999998      6.2800000000000011
   308   1      16.079999999999998      16.079999999999998      8.2400000000000002
   309   1      16.079999999999998      18.039999999999999      10.199999999999999
   310   1      18.039999999999999      16.079999999999998      10.199999999999999
   311   2      18.039999999999999      18.039999999999999      8.2400000000000002
   312   2      16.079999999999998      16.079999999999998                   12.16
   313   3      16.079999999999998      18.039999999999999      14.120000000000001
   314   1      18.039999999999999      16.079999999999998      14.120000000000001
   315   1      18.039999999999999      18.039999999999999                   12.16
   316   1      16.079999999999998      16.079999999999998      16.079999999999998
   317   3      16.079999999999998      18.039999999999999      18.039999999999999
   318   1      18.039999999999999      16.079999999999998      18.039999999999999
   319   2      18.039999999999999      18.039999999999999      16.079999999999998
   320   3      16.079999999999998      16.079999999999998                      20
   321   1      16.079999999999998      18.039999999999999      21.960000000000001
   322   3      18.039999999999999      16.079999999999998      21.960000000000001
   323   1      18.039999999999999      18.039999999999999                      20
   324   1      16.079999999999998      16.079999999999998      23.920000000000002
   325   1      16.079999999999998      18.039999999999999      25.880000000000003
   326   1      18.039999999999999      16.079999999999998      25.880000000000003
   327   1      18.039999999999999      18.039999999999999      23.920000000000002
   328   1      16.079999999999998      16.079999999999998                   27.84
   329   1      16.079999999999998      18.039999999999999      29.800000000000001
   330   1      18.039999999999999      16.079999999999998      29.800000000000001
   331   3      18.039999999999999      18.039999999999999                   27.84
   332   2      16.079999999999998      16.079999999999998      31.759999999999998
   333   3      16.079999999999998      18.039999999999999      33.719999999999999
   334   3      18.039999999999999      16.079999999999998      33.719999999999999
   335   3      18.039999999999999      18.039999999999999      31.759999999999998
   336   2      16.079999999999998      21.960000000000001      6.2800000000000011
   337   1      18.039999999999999                      20      6.2800000000000011
   338   3      16.079999999999998                      20      8.2400000000000002
   339   2      16.079999999999998      21.960000000000001      10.199999999999999
   340   1      18.039999999999999                      20      10.199999999999999
   341   2      18.039999999999999      21.960000000000001      8.2400000000000002
   342   2      16.079999999999998                      20                   12.16
   343   1      16.079999999999998      21.960000000000001      14.120000000000001
   344   2      18.039999999999999                      20      14.120000000000001
   345   2      18.039999999999999      21.960000000000001                   12.16
   346   1      16.079999999999998                      20      16.079999999999998
   347   1      16.079999999999998      21.960000000000001      18.039999999999999
   348   1      18.039999999999999                      20      18.039999999999999
   349   2      18.039999999999999      21.960000000000001      16.079999999999998
   350   2      16.079999999999998                      20                      20
   351   2      16.079999999999998      21.960000000000001      21.960000000000001
   352   3      18.039999999999999                      20      21.960000000000001
   353   3      18.039999999999999      21.960000000000001                      20
   354   1      16.079999999999998                      20      23.920000000000002
   355   1      16.079999999999998      21.960000000000001      25.880000000000003
   356   1      18.039999999999999                      20      25.880000000000003
   357   2      18.039999999999999      21.960000000000001      23.920000000000002
   358   3      16.079999999999998                      20                   27.84