/home/bill-peng/Projects/BNPs/TNP/RAL/PtAuPd30SP50RAL350RAL5.lmp (written by ASE) 

959 	 atoms 
3  atom types
0.0                      40  xlo xhi
0.0                      40  ylo yhi
0.0                      40  zlo zhi


Atoms 

     1   3      6.2800000000000011      14.120000000000001                      20
     2   3      6.2800000000000011      16.079999999999998      18.039999999999999
     3   2      6.2800000000000011      18.039999999999999      16.079999999999998
     4   2      6.2800000000000011      16.079999999999998      21.960000000000001
     5   2      6.2800000000000011      18.039999999999999                      20
     6   2      6.2800000000000011      18.039999999999999      23.920000000000002
     7   3      6.2800000000000011                      20      14.120000000000001
     8   2      6.2800000000000011                      20      18.039999999999999
     9   3      6.2800000000000011      21.960000000000001      16.079999999999998
    10   3      6.2800000000000011                      20      21.960000000000001
    11   2      6.2800000000000011      21.960000000000001                      20
    12   2      6.2800000000000011                      20      25.880000000000003
    13   2      6.2800000000000011      21.960000000000001      23.920000000000002
    14   3      6.2800000000000011      23.920000000000002      18.039999999999999
    15   2      6.2800000000000011      23.920000000000002      21.960000000000001
    16   3      6.2800000000000011      25.880000000000003                      20
    17   2      10.199999999999999      10.199999999999999      16.079999999999998
    18   2      10.199999999999999      10.199999999999999                      20
    19   3      10.199999999999999      10.199999999999999      23.920000000000002
    20   2      8.2400000000000002      14.120000000000001      14.120000000000001
    21   2      10.199999999999999                   12.16      14.120000000000001
    22   2      10.199999999999999      14.120000000000001                   12.16
    23   2      8.2400000000000002                   12.16      16.079999999999998
    24   2      8.2400000000000002      14.120000000000001      18.039999999999999
    25   3      10.199999999999999                   12.16      18.039999999999999
    26   2      10.199999999999999      14.120000000000001      16.079999999999998
    27   2      8.2400000000000002                   12.16                      20
    28   2      8.2400000000000002      14.120000000000001      21.960000000000001
    29   2      10.199999999999999                   12.16      21.960000000000001
    30   2      10.199999999999999      14.120000000000001                      20
    31   3      8.2400000000000002                   12.16      23.920000000000002
    32   2      8.2400000000000002      14.120000000000001      25.880000000000003
    33   2      10.199999999999999                   12.16      25.880000000000003
    34   3      10.199999999999999      14.120000000000001      23.920000000000002
    35   3      10.199999999999999      14.120000000000001                   27.84
    36   2      10.199999999999999      16.079999999999998      10.199999999999999
    37   2      8.2400000000000002      16.079999999999998                   12.16
    38   2      8.2400000000000002      18.039999999999999      14.120000000000001
    39   2      10.199999999999999      16.079999999999998      14.120000000000001
    40   2      10.199999999999999      18.039999999999999                   12.16
    41   3      8.2400000000000002      16.079999999999998      16.079999999999998
    42   2      8.2400000000000002      18.039999999999999      18.039999999999999
    43   2      10.199999999999999      16.079999999999998      18.039999999999999
    44   2      10.199999999999999      18.039999999999999      16.079999999999998
    45   3      8.2400000000000002      16.079999999999998                      20
    46   3      8.2400000000000002      18.039999999999999      21.960000000000001
    47   2      10.199999999999999      16.079999999999998      21.960000000000001
    48   2      10.199999999999999      18.039999999999999                      20
    49   2      8.2400000000000002      16.079999999999998      23.920000000000002
    50   3      8.2400000000000002      18.039999999999999      25.880000000000003
    51   2      10.199999999999999      16.079999999999998      25.880000000000003
    52   3      10.199999999999999      18.039999999999999      23.920000000000002
    53   3      8.2400000000000002      16.079999999999998                   27.84
    54   3      10.199999999999999      16.079999999999998      29.800000000000001
    55   1      10.199999999999999      18.039999999999999                   27.84
    56   1      10.199999999999999                      20      10.199999999999999
    57   3      8.2400000000000002                      20                   12.16
    58   2      8.2400000000000002      21.960000000000001      14.120000000000001
    59   2      10.199999999999999                      20      14.120000000000001
    60   2      10.199999999999999      21.960000000000001                   12.16
    61   3      8.2400000000000002                      20      16.079999999999998
    62   3      8.2400000000000002      21.960000000000001      18.039999999999999
    63   2      10.199999999999999                      20      18.039999999999999
    64   2      10.199999999999999      21.960000000000001      16.079999999999998
    65   2      8.2400000000000002                      20                      20
    66   3      8.2400000000000002      21.960000000000001      21.960000000000001
    67   2      10.199999999999999                      20      21.960000000000001
    68   3      10.199999999999999      21.960000000000001                      20
    69   2      8.2400000000000002                      20      23.920000000000002
    70   2      8.2400000000000002      21.960000000000001      25.880000000000003
    71   2      10.199999999999999                      20      25.880000000000003
    72   2      10.199999999999999      21.960000000000001      23.920000000000002
    73   2      8.2400000000000002                      20                   27.84
    74   3      10.199999999999999                      20      29.800000000000001
    75   2      10.199999999999999      21.960000000000001                   27.84
    76   2      10.199999999999999      23.920000000000002      10.199999999999999
    77   2      8.2400000000000002      23.920000000000002                   12.16
    78   3      8.2400000000000002      25.880000000000003      14.120000000000001
    79   2      10.199999999999999      23.920000000000002      14.120000000000001
    80   2      10.199999999999999      25.880000000000003                   12.16
    81   3      8.2400000000000002      23.920000000000002      16.079999999999998
    82   2      8.2400000000000002      25.880000000000003      18.039999999999999
    83   3      10.199999999999999      23.920000000000002      18.039999999999999
    84   2      10.199999999999999      25.880000000000003      16.079999999999998
    85   3      8.2400000000000002      23.920000000000002                      20
    86   3      8.2400000000000002      25.880000000000003      21.960000000000001
    87   2      10.199999999999999      23.920000000000002      21.960000000000001
    88   2      10.199999999999999      25.880000000000003                      20
    89   2      8.2400000000000002      23.920000000000002      23.920000000000002
    90   3      8.2400000000000002      25.880000000000003      25.880000000000003
    91   2      10.199999999999999      23.920000000000002      25.880000000000003
    92   3      10.199999999999999      25.880000000000003      23.920000000000002
    93   3      8.2400000000000002      23.920000000000002                   27.84
    94   2      10.199999999999999      23.920000000000002      29.800000000000001
    95   2      10.199999999999999      25.880000000000003                   27.84
    96   3      10.199999999999999                   27.84      14.120000000000001
    97   2      8.2400000000000002                   27.84      16.079999999999998
    98   3      10.199999999999999                   27.84      18.039999999999999
    99   2      10.199999999999999      29.800000000000001      16.079999999999998
   100   3      8.2400000000000002                   27.84                      20
   101   2      10.199999999999999                   27.84      21.960000000000001
   102   2      10.199999999999999      29.800000000000001                      20
   103   3      8.2400000000000002                   27.84      23.920000000000002
   104   3      10.199999999999999                   27.84      25.880000000000003
   105   2      10.199999999999999      29.800000000000001      23.920000000000002
   106   3      14.120000000000001      6.2800000000000011                      20
   107   3                   12.16      10.199999999999999      14.120000000000001
   108   3      14.120000000000001      8.2400000000000002      14.120000000000001
   109   2      14.120000000000001      10.199999999999999                   12.16
   110   2                   12.16      8.2400000000000002      16.079999999999998
   111   1                   12.16      10.199999999999999      18.039999999999999
   112   2      14.120000000000001      8.2400000000000002      18.039999999999999
   113   2      14.120000000000001      10.199999999999999      16.079999999999998
   114   2                   12.16      8.2400000000000002                      20
   115   2                   12.16      10.199999999999999      21.960000000000001
   116   2      14.120000000000001      8.2400000000000002      21.960000000000001
   117   2      14.120000000000001      10.199999999999999                      20
   118   3                   12.16      8.2400000000000002      23.920000000000002
   119   2                   12.16      10.199999999999999      25.880000000000003
   120   2      14.120000000000001      8.2400000000000002      25.880000000000003
   121   2      14.120000000000001      10.199999999999999      23.920000000000002
   122   3      14.120000000000001      10.199999999999999                   27.84
   123   2                   12.16      14.120000000000001      10.199999999999999
   124   3      14.120000000000001                   12.16      10.199999999999999
   125   2      14.120000000000001      14.120000000000001      8.2400000000000002
   126   3                   12.16                   12.16                   12.16
   127   3                   12.16      14.120000000000001      14.120000000000001
   128   2      14.120000000000001                   12.16      14.120000000000001
   129   3      14.120000000000001      14.120000000000001                   12.16
   130   3                   12.16                   12.16      16.079999999999998
   131   2                   12.16      14.120000000000001      18.039999999999999
   132   3      14.120000000000001                   12.16      18.039999999999999
   133   2      14.120000000000001      14.120000000000001      16.079999999999998
   134   3                   12.16                   12.16                      20
   135   2                   12.16      14.120000000000001      21.960000000000001
   136   3      14.120000000000001                   12.16      21.960000000000001
   137   2      14.120000000000001      14.120000000000001                      20
   138   3                   12.16                   12.16      23.920000000000002
   139   2                   12.16      14.120000000000001      25.880000000000003
   140   3      14.120000000000001                   12.16      25.880000000000003
   141   2      14.120000000000001      14.120000000000001      23.920000000000002
   142   2                   12.16                   12.16                   27.84
   143   3                   12.16      14.120000000000001      29.800000000000001
   144   2      14.120000000000001                   12.16      29.800000000000001
   145   2      14.120000000000001      14.120000000000001                   27.84
   146   2      14.120000000000001      14.120000000000001      31.759999999999998
   147   2                   12.16      16.079999999999998      8.2400000000000002
   148   3                   12.16      18.039999999999999      10.199999999999999
   149   2      14.120000000000001      16.079999999999998      10.199999999999999
   150   3      14.120000000000001      18.039999999999999      8.2400000000000002
   151   2                   12.16      16.079999999999998                   12.16
   152   3                   12.16      18.039999999999999      14.120000000000001
   153   2      14.120000000000001      16.079999999999998      14.120000000000001
   154   2      14.120000000000001      18.039999999999999                   12.16
   155   2                   12.16      16.079999999999998      16.079999999999998
   156   2                   12.16      18.039999999999999      18.039999999999999
   157   2      14.120000000000001      16.079999999999998      18.039999999999999
   158   2      14.120000000000001      18.039999999999999      16.079999999999998
   159   3                   12.16      16.079999999999998                      20
   160   3                   12.16      18.039999999999999      21.960000000000001
   161   3      14.120000000000001      16.079999999999998      21.960000000000001
   162   2      14.120000000000001      18.039999999999999                      20
   163   2                   12.16      16.079999999999998      23.920000000000002
   164   2                   12.16      18.039999999999999      25.880000000000003
   165   2      14.120000000000001      16.079999999999998      25.880000000000003
   166   2      14.120000000000001      18.039999999999999      23.920000000000002
   167   2                   12.16      16.079999999999998                   27.84
   168   3                   12.16      18.039999999999999      29.800000000000001
   169   2      14.120000000000001      16.079999999999998      29.800000000000001
   170   3      14.120000000000001      18.039999999999999                   27.84
   171   2                   12.16      16.079999999999998      31.759999999999998
   172   3      14.120000000000001      18.039999999999999      31.759999999999998
   173   2      14.120000000000001                      20      6.2800000000000011
   174   2                   12.16                      20      8.2400000000000002
   175   2                   12.16      21.960000000000001      10.199999999999999
   176   3      14.120000000000001                      20      10.199999999999999
   177   2      14.120000000000001      21.960000000000001      8.2400000000000002
   178   2                   12.16                      20                   12.16
   179   2                   12.16      21.960000000000001      14.120000000000001
   180   3      14.120000000000001                      20      14.120000000000001
   181   2      14.120000000000001      21.960000000000001                   12.16
   182   2                   12.16                      20      16.079999999999998
   183   2                   12.16      21.960000000000001      18.039999999999999
   184   2      14.120000000000001                      20      18.039999999999999
   185   2      14.120000000000001      21.960000000000001      16.079999999999998
   186   2                   12.16                      20                      20
   187   3                   12.16      21.960000000000001      21.960000000000001
   188   2      14.120000000000001                      20      21.960000000000001
   189   2      14.120000000000001      21.960000000000001                      20
   190   2                   12.16                      20      23.920000000000002
   191   2                   12.16      21.960000000000001      25.880000000000003
   192   2      14.120000000000001                      20      25.880000000000003
   193   2      14.120000000000001      21.960000000000001      23.920000000000002
   194   2                   12.16                      20                   27.84
   195   3                   12.16      21.960000000000001      29.800000000000001
   196   3      14.120000000000001                      20      29.800000000000001
   197   2      14.120000000000001      21.960000000000001                   27.84
   198   2                   12.16                      20      31.759999999999998
   199   3      14.120000000000001                      20      33.719999999999999
   200   2      14.120000000000001      21.960000000000001      31.759999999999998
   201   2                   12.16      23.920000000000002      8.2400000000000002
   202   3                   12.16      25.880000000000003      10.199999999999999
   203   2      14.120000000000001      23.920000000000002      10.199999999999999
   204   3      14.120000000000001      25.880000000000003      8.2400000000000002
   205   1                   12.16      23.920000000000002                   12.16
   206   2                   12.16      25.880000000000003      14.120000000000001
   207   3      14.120000000000001      23.920000000000002      14.120000000000001
   208   2      14.120000000000001      25.880000000000003                   12.16
   209   2                   12.16      23.920000000000002      16.079999999999998
   210   2                   12.16      25.880000000000003      18.039999999999999
   211   3      14.120000000000001      23.920000000000002      18.039999999999999
   212   2      14.120000000000001      25.880000000000003      16.079999999999998
   213   2                   12.16      23.920000000000002                      20
   214   2                   12.16      25.880000000000003      21.960000000000001
   215   2      14.120000000000001      23.920000000000002      21.960000000000001
   216   2      14.120000000000001      25.880000000000003                      20
   217   2                   12.16      23.920000000000002      23.920000000000002
   218   2                   12.16      25.880000000000003      25.880000000000003
   219   3      14.120000000000001      23.920000000000002      25.880000000000003
   220   3      14.120000000000001      25.880000000000003      23.920000000000002
   221   3                   12.16      23.920000000000002                   27.84
   222   2                   12.16      25.880000000000003      29.800000000000001
   223   2      14.120000000000001      23.920000000000002      29.800000000000001
   224   2      14.120000000000001      25.880000000000003                   27.84
   225   2                   12.16      23.920000000000002      31.759999999999998
   226   3      14.120000000000001      25.880000000000003      31.759999999999998
   227   2      14.120000000000001                   27.84      10.199999999999999
   228   3                   12.16                   27.84                   12.16
   229   2                   12.16      29.800000000000001      14.120000000000001
   230   2      14.120000000000001                   27.84      14.120000000000001
   231   3      14.120000000000001      29.800000000000001                   12.16
   232   2                   12.16                   27.84      16.079999999999998
   233   2                   12.16      29.800000000000001      18.039999999999999
   234   2      14.120000000000001                   27.84      18.039999999999999
   235   2      14.120000000000001      29.800000000000001      16.079999999999998
   236   2                   12.16                   27.84                      20
   237   2                   12.16      29.800000000000001      21.960000000000001
   238   2      14.120000000000001                   27.84      21.960000000000001
   239   1      14.120000000000001      29.800000000000001                      20
   240   3                   12.16                   27.84      23.920000000000002
   241   2                   12.16      29.800000000000001      25.880000000000003
   242   2      14.120000000000001                   27.84      25.880000000000003
   243   2      14.120000000000001      29.800000000000001      23.920000000000002
   244   2                   12.16                   27.84                   27.84
   245   3      14.120000000000001                   27.84      29.800000000000001
   246   3      14.120000000000001      29.800000000000001                   27.84
   247   2      14.120000000000001      31.759999999999998      14.120000000000001
   248   1                   12.16      31.759999999999998      16.079999999999998
   249   3      14.120000000000001      31.759999999999998      18.039999999999999
   250   2                   12.16      31.759999999999998                      20
   251   3      14.120000000000001      31.759999999999998      21.960000000000001
   252   3      14.120000000000001      33.719999999999999                      20
   253   3                   12.16      31.759999999999998      23.920000000000002
   254   3      14.120000000000001      31.759999999999998      25.880000000000003
   255   2      16.079999999999998      6.2800000000000011      18.039999999999999
   256   3      18.039999999999999      6.2800000000000011      16.079999999999998
   257   2      16.079999999999998      6.2800000000000011      21.960000000000001
   258   3      18.039999999999999      6.2800000000000011                      20
   259   3      18.039999999999999      6.2800000000000011      23.920000000000002
   260   3      16.079999999999998      10.199999999999999      10.199999999999999
   261   2      16.079999999999998      8.2400000000000002                   12.16
   262   2      16.079999999999998      10.199999999999999      14.120000000000001
   263   3      18.039999999999999      8.2400000000000002      14.120000000000001
   264   2      18.039999999999999      10.199999999999999                   12.16
   265   2      16.079999999999998      8.2400000000000002      16.079999999999998
   266   3      16.079999999999998      10.199999999999999      18.039999999999999
   267   3      18.039999999999999      8.2400000000000002      18.039999999999999
   268   2      18.039999999999999      10.199999999999999      16.079999999999998
   269   2      16.079999999999998      8.2400000000000002                      20
   270   2      16.079999999999998      10.199999999999999      21.960000000000001
   271   2      18.039999999999999      8.2400000000000002      21.960000000000001
   272   2      18.039999999999999      10.199999999999999                      20
   273   2      16.079999999999998      8.2400000000000002      23.920000000000002
   274   3      16.079999999999998      10.199999999999999      25.880000000000003
   275   2      18.039999999999999      8.2400000000000002      25.880000000000003
   276   2      18.039999999999999      10.199999999999999      23.920000000000002
   277   2      16.079999999999998      8.2400000000000002                   27.84
   278   2      16.079999999999998      10.199999999999999      29.800000000000001
   279   2      18.039999999999999      10.199999999999999                   27.84
   280   2      16.079999999999998                   12.16      8.2400000000000002
   281   3      16.079999999999998      14.120000000000001      10.199999999999999
   282   3      18.039999999999999                   12.16      10.199999999999999
   283   3      18.039999999999999      14.120000000000001      8.2400000000000002
   284   2      16.079999999999998                   12.16                   12.16
   285   2      16.079999999999998      14.120000000000001      14.120000000000001
   286   2      18.039999999999999                   12.16      14.120000000000001
   287   2      18.039999999999999      14.120000000000001                   12.16
   288   2      16.079999999999998                   12.16      16.079999999999998
   289   3      16.079999999999998      14.120000000000001      18.039999999999999
   290   2      18.039999999999999                   12.16      18.039999999999999
   291   2      18.039999999999999      14.120000000000001      16.079999999999998
   292   3      16.079999999999998                   12.16                      20
   293   3      16.079999999999998      14.120000000000001      21.960000000000001
   294   2      18.039999999999999                   12.16      21.960000000000001
   295   3      18.039999999999999      14.120000000000001                      20
   296   2      16.079999999999998                   12.16      23.920000000000002
   297   3      16.079999999999998      14.120000000000001      25.880000000000003
   298   3      18.039999999999999                   12.16      25.880000000000003
   299   2      18.039999999999999      14.120000000000001      23.920000000000002
   300   2      16.079999999999998                   12.16                   27.84
   301   3      16.079999999999998      14.120000000000001      29.800000000000001
   302   2      18.039999999999999                   12.16      29.800000000000001
   303   3      18.039999999999999      14.120000000000001                   27.84
   304   3      16.079999999999998                   12.16      31.759999999999998
   305   3      18.039999999999999      14.120000000000001      31.759999999999998
   306   3      16.079999999999998      18.039999999999999      6.2800000000000011
   307   2      18.039999999999999      16.079999999999998      6.2800000000000011
   308   2      16.079999999999998      16.079999999999998      8.2400000000000002
   309   3      16.079999999999998      18.039999999999999      10.199999999999999
   310   3      18.039999999999999      16.079999999999998      10.199999999999999
   311   2      18.039999999999999      18.039999999999999      8.2400000000000002
   312   2      16.079999999999998      16.079999999999998                   12.16
   313   3      16.079999999999998      18.039999999999999      14.120000000000001
   314   3      18.039999999999999      16.079999999999998      14.120000000000001
   315   2      18.039999999999999      18.039999999999999                   12.16
   316   3      16.079999999999998      16.079999999999998      16.079999999999998
   317   2      16.079999999999998      18.039999999999999      18.039999999999999
   318   2      18.039999999999999      16.079999999999998      18.039999999999999
   319   3      18.039999999999999      18.039999999999999      16.079999999999998
   320   3      16.079999999999998      16.079999999999998                      20
   321   3      16.079999999999998      18.039999999999999      21.960000000000001
   322   2      18.039999999999999      16.079999999999998      21.960000000000001
   323   3      18.039999999999999      18.039999999999999                      20
   324   3      16.079999999999998      16.079999999999998      23.920000000000002
   325   2      16.079999999999998      18.039999999999999      25.880000000000003
   326   2      18.039999999999999      16.079999999999998      25.880000000000003
   327   2      18.039999999999999      18.039999999999999      23.920000000000002
   328   3      16.079999999999998      16.079999999999998                   27.84
   329   2      16.079999999999998      18.039999999999999      29.800000000000001
   330   2      18.039999999999999      16.079999999999998      29.800000000000001
   331   2      18.039999999999999      18.039999999999999                   27.84
   332   2      16.079999999999998      16.079999999999998      31.759999999999998
   333   3      16.079999999999998      18.039999999999999      33.719999999999999
   334   2      18.039999999999999      16.079999999999998      33.719999999999999
   335   2      18.039999999999999      18.039999999999999      31.759999999999998
   336   2      16.079999999999998      21.960000000000001      6.2800000000000011
   337   1      18.039999999999999                      20      6.2800000000000011
   338   2      16.079999999999998                      20      8.2400000000000002
   339   2      16.079999999999998      21.960000000000001      10.199999999999999
   340   2      18.039999999999999                      20      10.199999999999999
   341   2      18.039999999999999      21.960000000000001      8.2400000000000002
   342   3      16.079999999999998                      20                   12.16
   343   2      16.079999999999998      21.960000000000001      14.120000000000001
   344   2      18.039999999999999                      20      14.120000000000001
   345   2      18.039999999999999      21.960000000000001                   12.16
   346   2      16.079999999999998                      20      16.079999999999998
   347   2      16.079999999999998      21.960000000000001      18.039999999999999
   348   2      18.039999999999999                      20      18.039999999999999
   349   2      18.039999999999999      21.960000000000001      16.079999999999998
   350   3      16.079999999999998                      20                      20
   351   2      16.079999999999998      21.960000000000001      21.960000000000001
   352   3      18.039999999999999                      20      21.960000000000001
   353   3      18.039999999999999      21.960000000000001                      20
   354   3      16.079999999999998                      20      23.920000000000002
   355   2      16.079999999999998      21.960000000000001      25.880000000000003
   356   2      18.039999999999999                      20      25.880000000000003
   357   2      18.039999999999999      21.960000000000001      23.920000000000002
   358   2      16.079999999999998                      20                   27.84