/home/bill-peng/Projects/BNPs/TNP/RAL/PtAuPd30SP50RAL925RAL4.lmp (written by ASE) 

959 	 atoms 
3  atom types
0.0                      40  xlo xhi
0.0                      40  ylo yhi
0.0                      40  zlo zhi


Atoms 

     1   2      6.2800000000000011      14.120000000000001                      20
     2   3      6.2800000000000011      16.079999999999998      18.039999999999999
     3   2      6.2800000000000011      18.039999999999999      16.079999999999998
     4   1      6.2800000000000011      16.079999999999998      21.960000000000001
     5   2      6.2800000000000011      18.039999999999999                      20
     6   2      6.2800000000000011      18.039999999999999      23.920000000000002
     7   2      6.2800000000000011                      20      14.120000000000001
     8   2      6.2800000000000011                      20      18.039999999999999
     9   1      6.2800000000000011      21.960000000000001      16.079999999999998
    10   1      6.2800000000000011                      20      21.960000000000001
    11   2      6.2800000000000011      21.960000000000001                      20
    12   3      6.2800000000000011                      20      25.880000000000003
    13   2      6.2800000000000011      21.960000000000001      23.920000000000002
    14   2      6.2800000000000011      23.920000000000002      18.039999999999999
    15   3      6.2800000000000011      23.920000000000002      21.960000000000001
    16   2      6.2800000000000011      25.880000000000003                      20
    17   1      10.199999999999999      10.199999999999999      16.079999999999998
    18   1      10.199999999999999      10.199999999999999                      20
    19   3      10.199999999999999      10.199999999999999      23.920000000000002
    20   2      8.2400000000000002      14.120000000000001      14.120000000000001
    21   1      10.199999999999999                   12.16      14.120000000000001
    22   2      10.199999999999999      14.120000000000001                   12.16
    23   2      8.2400000000000002                   12.16      16.079999999999998
    24   2      8.2400000000000002      14.120000000000001      18.039999999999999
    25   1      10.199999999999999                   12.16      18.039999999999999
    26   3      10.199999999999999      14.120000000000001      16.079999999999998
    27   3      8.2400000000000002                   12.16                      20
    28   3      8.2400000000000002      14.120000000000001      21.960000000000001
    29   3      10.199999999999999                   12.16      21.960000000000001
    30   3      10.199999999999999      14.120000000000001                      20
    31   3      8.2400000000000002                   12.16      23.920000000000002
    32   3      8.2400000000000002      14.120000000000001      25.880000000000003
    33   2      10.199999999999999                   12.16      25.880000000000003
    34   1      10.199999999999999      14.120000000000001      23.920000000000002
    35   1      10.199999999999999      14.120000000000001                   27.84
    36   3      10.199999999999999      16.079999999999998      10.199999999999999
    37   1      8.2400000000000002      16.079999999999998                   12.16
    38   3      8.2400000000000002      18.039999999999999      14.120000000000001
    39   3      10.199999999999999      16.079999999999998      14.120000000000001
    40   3      10.199999999999999      18.039999999999999                   12.16
    41   1      8.2400000000000002      16.079999999999998      16.079999999999998
    42   1      8.2400000000000002      18.039999999999999      18.039999999999999
    43   2      10.199999999999999      16.079999999999998      18.039999999999999
    44   1      10.199999999999999      18.039999999999999      16.079999999999998
    45   3      8.2400000000000002      16.079999999999998                      20
    46   2      8.2400000000000002      18.039999999999999      21.960000000000001
    47   2      10.199999999999999      16.079999999999998      21.960000000000001
    48   3      10.199999999999999      18.039999999999999                      20
    49   3      8.2400000000000002      16.079999999999998      23.920000000000002
    50   2      8.2400000000000002      18.039999999999999      25.880000000000003
    51   2      10.199999999999999      16.079999999999998      25.880000000000003
    52   3      10.199999999999999      18.039999999999999      23.920000000000002
    53   3      8.2400000000000002      16.079999999999998                   27.84
    54   2      10.199999999999999      16.079999999999998      29.800000000000001
    55   1      10.199999999999999      18.039999999999999                   27.84
    56   1      10.199999999999999                      20      10.199999999999999
    57   2      8.2400000000000002                      20                   12.16
    58   1      8.2400000000000002      21.960000000000001      14.120000000000001
    59   3      10.199999999999999                      20      14.120000000000001
    60   2      10.199999999999999      21.960000000000001                   12.16
    61   2      8.2400000000000002                      20      16.079999999999998
    62   3      8.2400000000000002      21.960000000000001      18.039999999999999
    63   2      10.199999999999999                      20      18.039999999999999
    64   1      10.199999999999999      21.960000000000001      16.079999999999998
    65   2      8.2400000000000002                      20                      20
    66   3      8.2400000000000002      21.960000000000001      21.960000000000001
    67   2      10.199999999999999                      20      21.960000000000001
    68   1      10.199999999999999      21.960000000000001                      20
    69   3      8.2400000000000002                      20      23.920000000000002
    70   1      8.2400000000000002      21.960000000000001      25.880000000000003
    71   3      10.199999999999999                      20      25.880000000000003
    72   3      10.199999999999999      21.960000000000001      23.920000000000002
    73   3      8.2400000000000002                      20                   27.84
    74   1      10.199999999999999                      20      29.800000000000001
    75   3      10.199999999999999      21.960000000000001                   27.84
    76   3      10.199999999999999      23.920000000000002      10.199999999999999
    77   2      8.2400000000000002      23.920000000000002                   12.16
    78   3      8.2400000000000002      25.880000000000003      14.120000000000001
    79   3      10.199999999999999      23.920000000000002      14.120000000000001
    80   2      10.199999999999999      25.880000000000003                   12.16
    81   2      8.2400000000000002      23.920000000000002      16.079999999999998
    82   3      8.2400000000000002      25.880000000000003      18.039999999999999
    83   3      10.199999999999999      23.920000000000002      18.039999999999999
    84   3      10.199999999999999      25.880000000000003      16.079999999999998
    85   1      8.2400000000000002      23.920000000000002                      20
    86   2      8.2400000000000002      25.880000000000003      21.960000000000001
    87   3      10.199999999999999      23.920000000000002      21.960000000000001
    88   2      10.199999999999999      25.880000000000003                      20
    89   2      8.2400000000000002      23.920000000000002      23.920000000000002
    90   2      8.2400000000000002      25.880000000000003      25.880000000000003
    91   3      10.199999999999999      23.920000000000002      25.880000000000003
    92   1      10.199999999999999      25.880000000000003      23.920000000000002
    93   1      8.2400000000000002      23.920000000000002                   27.84
    94   3      10.199999999999999      23.920000000000002      29.800000000000001
    95   3      10.199999999999999      25.880000000000003                   27.84
    96   3      10.199999999999999                   27.84      14.120000000000001
    97   2      8.2400000000000002                   27.84      16.079999999999998
    98   1      10.199999999999999                   27.84      18.039999999999999
    99   1      10.199999999999999      29.800000000000001      16.079999999999998
   100   2      8.2400000000000002                   27.84                      20
   101   3      10.199999999999999                   27.84      21.960000000000001
   102   1      10.199999999999999      29.800000000000001                      20
   103   3      8.2400000000000002                   27.84      23.920000000000002
   104   2      10.199999999999999                   27.84      25.880000000000003
   105   2      10.199999999999999      29.800000000000001      23.920000000000002
   106   1      14.120000000000001      6.2800000000000011                      20
   107   3                   12.16      10.199999999999999      14.120000000000001
   108   2      14.120000000000001      8.2400000000000002      14.120000000000001
   109   2      14.120000000000001      10.199999999999999                   12.16
   110   2                   12.16      8.2400000000000002      16.079999999999998
   111   1                   12.16      10.199999999999999      18.039999999999999
   112   3      14.120000000000001      8.2400000000000002      18.039999999999999
   113   3      14.120000000000001      10.199999999999999      16.079999999999998
   114   3                   12.16      8.2400000000000002                      20
   115   3                   12.16      10.199999999999999      21.960000000000001
   116   3      14.120000000000001      8.2400000000000002      21.960000000000001
   117   3      14.120000000000001      10.199999999999999                      20
   118   2                   12.16      8.2400000000000002      23.920000000000002
   119   3                   12.16      10.199999999999999      25.880000000000003
   120   3      14.120000000000001      8.2400000000000002      25.880000000000003
   121   1      14.120000000000001      10.199999999999999      23.920000000000002
   122   3      14.120000000000001      10.199999999999999                   27.84
   123   2                   12.16      14.120000000000001      10.199999999999999
   124   2      14.120000000000001                   12.16      10.199999999999999
   125   2      14.120000000000001      14.120000000000001      8.2400000000000002
   126   3                   12.16                   12.16                   12.16
   127   3                   12.16      14.120000000000001      14.120000000000001
   128   1      14.120000000000001                   12.16      14.120000000000001
   129   3      14.120000000000001      14.120000000000001                   12.16
   130   3                   12.16                   12.16      16.079999999999998
   131   1                   12.16      14.120000000000001      18.039999999999999
   132   3      14.120000000000001                   12.16      18.039999999999999
   133   3      14.120000000000001      14.120000000000001      16.079999999999998
   134   3                   12.16                   12.16                      20
   135   3                   12.16      14.120000000000001      21.960000000000001
   136   3      14.120000000000001                   12.16      21.960000000000001
   137   3      14.120000000000001      14.120000000000001                      20
   138   1                   12.16                   12.16      23.920000000000002
   139   3                   12.16      14.120000000000001      25.880000000000003
   140   3      14.120000000000001                   12.16      25.880000000000003
   141   2      14.120000000000001      14.120000000000001      23.920000000000002
   142   3                   12.16                   12.16                   27.84
   143   2                   12.16      14.120000000000001      29.800000000000001
   144   3      14.120000000000001                   12.16      29.800000000000001
   145   3      14.120000000000001      14.120000000000001                   27.84
   146   2      14.120000000000001      14.120000000000001      31.759999999999998
   147   3                   12.16      16.079999999999998      8.2400000000000002
   148   3                   12.16      18.039999999999999      10.199999999999999
   149   3      14.120000000000001      16.079999999999998      10.199999999999999
   150   2      14.120000000000001      18.039999999999999      8.2400000000000002
   151   3                   12.16      16.079999999999998                   12.16
   152   3                   12.16      18.039999999999999      14.120000000000001
   153   3      14.120000000000001      16.079999999999998      14.120000000000001
   154   3      14.120000000000001      18.039999999999999                   12.16
   155   2                   12.16      16.079999999999998      16.079999999999998
   156   2                   12.16      18.039999999999999      18.039999999999999
   157   2      14.120000000000001      16.079999999999998      18.039999999999999
   158   1      14.120000000000001      18.039999999999999      16.079999999999998
   159   3                   12.16      16.079999999999998                      20
   160   3                   12.16      18.039999999999999      21.960000000000001
   161   1      14.120000000000001      16.079999999999998      21.960000000000001
   162   1      14.120000000000001      18.039999999999999                      20
   163   3                   12.16      16.079999999999998      23.920000000000002
   164   1                   12.16      18.039999999999999      25.880000000000003
   165   2      14.120000000000001      16.079999999999998      25.880000000000003
   166   2      14.120000000000001      18.039999999999999      23.920000000000002
   167   2                   12.16      16.079999999999998                   27.84
   168   2                   12.16      18.039999999999999      29.800000000000001
   169   3      14.120000000000001      16.079999999999998      29.800000000000001
   170   3      14.120000000000001      18.039999999999999                   27.84
   171   2                   12.16      16.079999999999998      31.759999999999998
   172   2      14.120000000000001      18.039999999999999      31.759999999999998
   173   2      14.120000000000001                      20      6.2800000000000011
   174   1                   12.16                      20      8.2400000000000002
   175   2                   12.16      21.960000000000001      10.199999999999999
   176   3      14.120000000000001                      20      10.199999999999999
   177   3      14.120000000000001      21.960000000000001      8.2400000000000002
   178   2                   12.16                      20                   12.16
   179   3                   12.16      21.960000000000001      14.120000000000001
   180   1      14.120000000000001                      20      14.120000000000001
   181   2      14.120000000000001      21.960000000000001                   12.16
   182   3                   12.16                      20      16.079999999999998
   183   3                   12.16      21.960000000000001      18.039999999999999
   184   3      14.120000000000001                      20      18.039999999999999
   185   2      14.120000000000001      21.960000000000001      16.079999999999998
   186   3                   12.16                      20                      20
   187   1                   12.16      21.960000000000001      21.960000000000001
   188   1      14.120000000000001                      20      21.960000000000001
   189   2      14.120000000000001      21.960000000000001                      20
   190   3                   12.16                      20      23.920000000000002
   191   2                   12.16      21.960000000000001      25.880000000000003
   192   3      14.120000000000001                      20      25.880000000000003
   193   2      14.120000000000001      21.960000000000001      23.920000000000002
   194   2                   12.16                      20                   27.84
   195   3                   12.16      21.960000000000001      29.800000000000001
   196   3      14.120000000000001                      20      29.800000000000001
   197   3      14.120000000000001      21.960000000000001                   27.84
   198   2                   12.16                      20      31.759999999999998
   199   2      14.120000000000001                      20      33.719999999999999
   200   1      14.120000000000001      21.960000000000001      31.759999999999998
   201   3                   12.16      23.920000000000002      8.2400000000000002
   202   1                   12.16      25.880000000000003      10.199999999999999
   203   2      14.120000000000001      23.920000000000002      10.199999999999999
   204   3      14.120000000000001      25.880000000000003      8.2400000000000002
   205   1                   12.16      23.920000000000002                   12.16
   206   3                   12.16      25.880000000000003      14.120000000000001
   207   1      14.120000000000001      23.920000000000002      14.120000000000001
   208   1      14.120000000000001      25.880000000000003                   12.16
   209   2                   12.16      23.920000000000002      16.079999999999998
   210   3                   12.16      25.880000000000003      18.039999999999999
   211   3      14.120000000000001      23.920000000000002      18.039999999999999
   212   3      14.120000000000001      25.880000000000003      16.079999999999998
   213   3                   12.16      23.920000000000002                      20
   214   2                   12.16      25.880000000000003      21.960000000000001
   215   1      14.120000000000001      23.920000000000002      21.960000000000001
   216   3      14.120000000000001      25.880000000000003                      20
   217   3                   12.16      23.920000000000002      23.920000000000002
   218   3                   12.16      25.880000000000003      25.880000000000003
   219   2      14.120000000000001      23.920000000000002      25.880000000000003
   220   2      14.120000000000001      25.880000000000003      23.920000000000002
   221   3                   12.16      23.920000000000002                   27.84
   222   2                   12.16      25.880000000000003      29.800000000000001
   223   3      14.120000000000001      23.920000000000002      29.800000000000001
   224   3      14.120000000000001      25.880000000000003                   27.84
   225   2                   12.16      23.920000000000002      31.759999999999998
   226   2      14.120000000000001      25.880000000000003      31.759999999999998
   227   1      14.120000000000001                   27.84      10.199999999999999
   228   3                   12.16                   27.84                   12.16
   229   2                   12.16      29.800000000000001      14.120000000000001
   230   3      14.120000000000001                   27.84      14.120000000000001
   231   2      14.120000000000001      29.800000000000001                   12.16
   232   3                   12.16                   27.84      16.079999999999998
   233   3                   12.16      29.800000000000001      18.039999999999999
   234   2      14.120000000000001                   27.84      18.039999999999999
   235   3      14.120000000000001      29.800000000000001      16.079999999999998
   236   3                   12.16                   27.84                      20
   237   3                   12.16      29.800000000000001      21.960000000000001
   238   1      14.120000000000001                   27.84      21.960000000000001
   239   1      14.120000000000001      29.800000000000001                      20
   240   1                   12.16                   27.84      23.920000000000002
   241   1                   12.16      29.800000000000001      25.880000000000003
   242   3      14.120000000000001                   27.84      25.880000000000003
   243   3      14.120000000000001      29.800000000000001      23.920000000000002
   244   1                   12.16                   27.84                   27.84
   245   3      14.120000000000001                   27.84      29.800000000000001
   246   1      14.120000000000001      29.800000000000001                   27.84
   247   3      14.120000000000001      31.759999999999998      14.120000000000001
   248   1                   12.16      31.759999999999998      16.079999999999998
   249   3      14.120000000000001      31.759999999999998      18.039999999999999
   250   2                   12.16      31.759999999999998                      20
   251   2      14.120000000000001      31.759999999999998      21.960000000000001
   252   2      14.120000000000001      33.719999999999999                      20
   253   1                   12.16      31.759999999999998      23.920000000000002
   254   3      14.120000000000001      31.759999999999998      25.880000000000003
   255   1      16.079999999999998      6.2800000000000011      18.039999999999999
   256   1      18.039999999999999      6.2800000000000011      16.079999999999998
   257   3      16.079999999999998      6.2800000000000011      21.960000000000001
   258   2      18.039999999999999      6.2800000000000011                      20
   259   3      18.039999999999999      6.2800000000000011      23.920000000000002
   260   2      16.079999999999998      10.199999999999999      10.199999999999999
   261   2      16.079999999999998      8.2400000000000002                   12.16
   262   1      16.079999999999998      10.199999999999999      14.120000000000001
   263   2      18.039999999999999      8.2400000000000002      14.120000000000001
   264   3      18.039999999999999      10.199999999999999                   12.16
   265   1      16.079999999999998      8.2400000000000002      16.079999999999998
   266   3      16.079999999999998      10.199999999999999      18.039999999999999
   267   2      18.039999999999999      8.2400000000000002      18.039999999999999
   268   3      18.039999999999999      10.199999999999999      16.079999999999998
   269   2      16.079999999999998      8.2400000000000002                      20
   270   3      16.079999999999998      10.199999999999999      21.960000000000001
   271   3      18.039999999999999      8.2400000000000002      21.960000000000001
   272   3      18.039999999999999      10.199999999999999                      20
   273   1      16.079999999999998      8.2400000000000002      23.920000000000002
   274   3      16.079999999999998      10.199999999999999      25.880000000000003
   275   2      18.039999999999999      8.2400000000000002      25.880000000000003
   276   3      18.039999999999999      10.199999999999999      23.920000000000002
   277   3      16.079999999999998      8.2400000000000002                   27.84
   278   2      16.079999999999998      10.199999999999999      29.800000000000001
   279   3      18.039999999999999      10.199999999999999                   27.84
   280   2      16.079999999999998                   12.16      8.2400000000000002
   281   2      16.079999999999998      14.120000000000001      10.199999999999999
   282   2      18.039999999999999                   12.16      10.199999999999999
   283   2      18.039999999999999      14.120000000000001      8.2400000000000002
   284   3      16.079999999999998                   12.16                   12.16
   285   2      16.079999999999998      14.120000000000001      14.120000000000001
   286   1      18.039999999999999                   12.16      14.120000000000001
   287   2      18.039999999999999      14.120000000000001                   12.16
   288   2      16.079999999999998                   12.16      16.079999999999998
   289   1      16.079999999999998      14.120000000000001      18.039999999999999
   290   3      18.039999999999999                   12.16      18.039999999999999
   291   3      18.039999999999999      14.120000000000001      16.079999999999998
   292   2      16.079999999999998                   12.16                      20
   293   3      16.079999999999998      14.120000000000001      21.960000000000001
   294   3      18.039999999999999                   12.16      21.960000000000001
   295   1      18.039999999999999      14.120000000000001                      20
   296   1      16.079999999999998                   12.16      23.920000000000002
   297   3      16.079999999999998      14.120000000000001      25.880000000000003
   298   2      18.039999999999999                   12.16      25.880000000000003
   299   2      18.039999999999999      14.120000000000001      23.920000000000002
   300   3      16.079999999999998                   12.16                   27.84
   301   3      16.079999999999998      14.120000000000001      29.800000000000001
   302   3      18.039999999999999                   12.16      29.800000000000001
   303   1      18.039999999999999      14.120000000000001                   27.84
   304   2      16.079999999999998                   12.16      31.759999999999998
   305   3      18.039999999999999      14.120000000000001      31.759999999999998
   306   3      16.079999999999998      18.039999999999999      6.2800000000000011
   307   3      18.039999999999999      16.079999999999998      6.2800000000000011
   308   3      16.079999999999998      16.079999999999998      8.2400000000000002
   309   3      16.079999999999998      18.039999999999999      10.199999999999999
   310   3      18.039999999999999      16.079999999999998      10.199999999999999
   311   1      18.039999999999999      18.039999999999999      8.2400000000000002
   312   3      16.079999999999998      16.079999999999998                   12.16
   313   3      16.079999999999998      18.039999999999999      14.120000000000001
   314   1      18.039999999999999      16.079999999999998      14.120000000000001
   315   3      18.039999999999999      18.039999999999999                   12.16
   316   1      16.079999999999998      16.079999999999998      16.079999999999998
   317   3      16.079999999999998      18.039999999999999      18.039999999999999
   318   3      18.039999999999999      16.079999999999998      18.039999999999999
   319   3      18.039999999999999      18.039999999999999      16.079999999999998
   320   3      16.079999999999998      16.079999999999998                      20
   321   2      16.079999999999998      18.039999999999999      21.960000000000001
   322   3      18.039999999999999      16.079999999999998      21.960000000000001
   323   2      18.039999999999999      18.039999999999999                      20
   324   2      16.079999999999998      16.079999999999998      23.920000000000002
   325   1      16.079999999999998      18.039999999999999      25.880000000000003
   326   3      18.039999999999999      16.079999999999998      25.880000000000003
   327   3      18.039999999999999      18.039999999999999      23.920000000000002
   328   3      16.079999999999998      16.079999999999998                   27.84
   329   3      16.079999999999998      18.039999999999999      29.800000000000001
   330   2      18.039999999999999      16.079999999999998      29.800000000000001
   331   2      18.039999999999999      18.039999999999999                   27.84
   332   3      16.079999999999998      16.079999999999998      31.759999999999998
   333   2      16.079999999999998      18.039999999999999      33.719999999999999
   334   3      18.039999999999999      16.079999999999998      33.719999999999999
   335   2      18.039999999999999      18.039999999999999      31.759999999999998
   336   1      16.079999999999998      21.960000000000001      6.2800000000000011
   337   1      18.039999999999999                      20      6.2800000000000011
   338   3      16.079999999999998                      20      8.2400000000000002
   339   2      16.079999999999998      21.960000000000001      10.199999999999999
   340   1      18.039999999999999                      20      10.199999999999999
   341   2      18.039999999999999      21.960000000000001      8.2400000000000002
   342   3      16.079999999999998                      20                   12.16
   343   2      16.079999999999998      21.960000000000001      14.120000000000001
   344   1      18.039999999999999                      20      14.120000000000001
   345   2      18.039999999999999      21.960000000000001                   12.16
   346   1      16.079999999999998                      20      16.079999999999998
   347   3      16.079999999999998      21.960000000000001      18.039999999999999
   348   2      18.039999999999999                      20      18.039999999999999
   349   2      18.039999999999999      21.960000000000001      16.079999999999998
   350   3      16.079999999999998                      20                      20
   351   2      16.079999999999998      21.960000000000001      21.960000000000001
   352   3      18.039999999999999                      20      21.960000000000001
   353   3      18.039999999999999      21.960000000000001                      20
   354   3      16.079999999999998                      20      23.920000000000002
   355   2      16.079999999999998      21.960000000000001      25.880000000000003
   356   3      18.039999999999999                      20      25.880000000000003
   357   2      18.039999999999999      21.960000000000001      23.920000000000002
   358   1      16.079999999999998                      20                   27.84