/home/bill-peng/Projects/BNPs/TNP/RAL/PtPdAu30SPL1025RAL7.lmp (written by ASE) 

959 	 atoms 
3  atom types
0.0                      40  xlo xhi
0.0                      40  ylo yhi
0.0                      40  zlo zhi


Atoms 

     1   2      6.2800000000000011      14.120000000000001                      20
     2   1      6.2800000000000011      16.079999999999998      18.039999999999999
     3   2      6.2800000000000011      18.039999999999999      16.079999999999998
     4   2      6.2800000000000011      16.079999999999998      21.960000000000001
     5   1      6.2800000000000011      18.039999999999999                      20
     6   1      6.2800000000000011      18.039999999999999      23.920000000000002
     7   1      6.2800000000000011                      20      14.120000000000001
     8   1      6.2800000000000011                      20      18.039999999999999
     9   3      6.2800000000000011      21.960000000000001      16.079999999999998
    10   3      6.2800000000000011                      20      21.960000000000001
    11   2      6.2800000000000011      21.960000000000001                      20
    12   1      6.2800000000000011                      20      25.880000000000003
    13   3      6.2800000000000011      21.960000000000001      23.920000000000002
    14   2      6.2800000000000011      23.920000000000002      18.039999999999999
    15   2      6.2800000000000011      23.920000000000002      21.960000000000001
    16   1      6.2800000000000011      25.880000000000003                      20
    17   3      10.199999999999999      10.199999999999999      16.079999999999998
    18   3      10.199999999999999      10.199999999999999                      20
    19   2      10.199999999999999      10.199999999999999      23.920000000000002
    20   2      8.2400000000000002      14.120000000000001      14.120000000000001
    21   3      10.199999999999999                   12.16      14.120000000000001
    22   1      10.199999999999999      14.120000000000001                   12.16
    23   3      8.2400000000000002                   12.16      16.079999999999998
    24   2      8.2400000000000002      14.120000000000001      18.039999999999999
    25   1      10.199999999999999                   12.16      18.039999999999999
    26   2      10.199999999999999      14.120000000000001      16.079999999999998
    27   3      8.2400000000000002                   12.16                      20
    28   2      8.2400000000000002      14.120000000000001      21.960000000000001
    29   2      10.199999999999999                   12.16      21.960000000000001
    30   2      10.199999999999999      14.120000000000001                      20
    31   2      8.2400000000000002                   12.16      23.920000000000002
    32   2      8.2400000000000002      14.120000000000001      25.880000000000003
    33   1      10.199999999999999                   12.16      25.880000000000003
    34   1      10.199999999999999      14.120000000000001      23.920000000000002
    35   2      10.199999999999999      14.120000000000001                   27.84
    36   1      10.199999999999999      16.079999999999998      10.199999999999999
    37   1      8.2400000000000002      16.079999999999998                   12.16
    38   2      8.2400000000000002      18.039999999999999      14.120000000000001
    39   2      10.199999999999999      16.079999999999998      14.120000000000001
    40   1      10.199999999999999      18.039999999999999                   12.16
    41   3      8.2400000000000002      16.079999999999998      16.079999999999998
    42   2      8.2400000000000002      18.039999999999999      18.039999999999999
    43   3      10.199999999999999      16.079999999999998      18.039999999999999
    44   2      10.199999999999999      18.039999999999999      16.079999999999998
    45   3      8.2400000000000002      16.079999999999998                      20
    46   2      8.2400000000000002      18.039999999999999      21.960000000000001
    47   1      10.199999999999999      16.079999999999998      21.960000000000001
    48   1      10.199999999999999      18.039999999999999                      20
    49   1      8.2400000000000002      16.079999999999998      23.920000000000002
    50   1      8.2400000000000002      18.039999999999999      25.880000000000003
    51   2      10.199999999999999      16.079999999999998      25.880000000000003
    52   2      10.199999999999999      18.039999999999999      23.920000000000002
    53   2      8.2400000000000002      16.079999999999998                   27.84
    54   3      10.199999999999999      16.079999999999998      29.800000000000001
    55   2      10.199999999999999      18.039999999999999                   27.84
    56   3      10.199999999999999                      20      10.199999999999999
    57   2      8.2400000000000002                      20                   12.16
    58   2      8.2400000000000002      21.960000000000001      14.120000000000001
    59   3      10.199999999999999                      20      14.120000000000001
    60   2      10.199999999999999      21.960000000000001                   12.16
    61   2      8.2400000000000002                      20      16.079999999999998
    62   2      8.2400000000000002      21.960000000000001      18.039999999999999
    63   2      10.199999999999999                      20      18.039999999999999
    64   1      10.199999999999999      21.960000000000001      16.079999999999998
    65   1      8.2400000000000002                      20                      20
    66   2      8.2400000000000002      21.960000000000001      21.960000000000001
    67   1      10.199999999999999                      20      21.960000000000001
    68   1      10.199999999999999      21.960000000000001                      20
    69   1      8.2400000000000002                      20      23.920000000000002
    70   1      8.2400000000000002      21.960000000000001      25.880000000000003
    71   2      10.199999999999999                      20      25.880000000000003
    72   2      10.199999999999999      21.960000000000001      23.920000000000002
    73   2      8.2400000000000002                      20                   27.84
    74   3      10.199999999999999                      20      29.800000000000001
    75   2      10.199999999999999      21.960000000000001                   27.84
    76   3      10.199999999999999      23.920000000000002      10.199999999999999
    77   2      8.2400000000000002      23.920000000000002                   12.16
    78   2      8.2400000000000002      25.880000000000003      14.120000000000001
    79   2      10.199999999999999      23.920000000000002      14.120000000000001
    80   2      10.199999999999999      25.880000000000003                   12.16
    81   3      8.2400000000000002      23.920000000000002      16.079999999999998
    82   2      8.2400000000000002      25.880000000000003      18.039999999999999
    83   2      10.199999999999999      23.920000000000002      18.039999999999999
    84   2      10.199999999999999      25.880000000000003      16.079999999999998
    85   1      8.2400000000000002      23.920000000000002                      20
    86   1      8.2400000000000002      25.880000000000003      21.960000000000001
    87   3      10.199999999999999      23.920000000000002      21.960000000000001
    88   1      10.199999999999999      25.880000000000003                      20
    89   1      8.2400000000000002      23.920000000000002      23.920000000000002
    90   1      8.2400000000000002      25.880000000000003      25.880000000000003
    91   1      10.199999999999999      23.920000000000002      25.880000000000003
    92   1      10.199999999999999      25.880000000000003      23.920000000000002
    93   2      8.2400000000000002      23.920000000000002                   27.84
    94   1      10.199999999999999      23.920000000000002      29.800000000000001
    95   2      10.199999999999999      25.880000000000003                   27.84
    96   2      10.199999999999999                   27.84      14.120000000000001
    97   1      8.2400000000000002                   27.84      16.079999999999998
    98   3      10.199999999999999                   27.84      18.039999999999999
    99   2      10.199999999999999      29.800000000000001      16.079999999999998
   100   3      8.2400000000000002                   27.84                      20
   101   3      10.199999999999999                   27.84      21.960000000000001
   102   2      10.199999999999999      29.800000000000001                      20
   103   1      8.2400000000000002                   27.84      23.920000000000002
   104   2      10.199999999999999                   27.84      25.880000000000003
   105   2      10.199999999999999      29.800000000000001      23.920000000000002
   106   2      14.120000000000001      6.2800000000000011                      20
   107   1                   12.16      10.199999999999999      14.120000000000001
   108   2      14.120000000000001      8.2400000000000002      14.120000000000001
   109   2      14.120000000000001      10.199999999999999                   12.16
   110   2                   12.16      8.2400000000000002      16.079999999999998
   111   2                   12.16      10.199999999999999      18.039999999999999
   112   1      14.120000000000001      8.2400000000000002      18.039999999999999
   113   3      14.120000000000001      10.199999999999999      16.079999999999998
   114   2                   12.16      8.2400000000000002                      20
   115   1                   12.16      10.199999999999999      21.960000000000001
   116   2      14.120000000000001      8.2400000000000002      21.960000000000001
   117   1      14.120000000000001      10.199999999999999                      20
   118   2                   12.16      8.2400000000000002      23.920000000000002
   119   3                   12.16      10.199999999999999      25.880000000000003
   120   2      14.120000000000001      8.2400000000000002      25.880000000000003
   121   2      14.120000000000001      10.199999999999999      23.920000000000002
   122   1      14.120000000000001      10.199999999999999                   27.84
   123   2                   12.16      14.120000000000001      10.199999999999999
   124   2      14.120000000000001                   12.16      10.199999999999999
   125   2      14.120000000000001      14.120000000000001      8.2400000000000002
   126   3                   12.16                   12.16                   12.16
   127   2                   12.16      14.120000000000001      14.120000000000001
   128   1      14.120000000000001                   12.16      14.120000000000001
   129   1      14.120000000000001      14.120000000000001                   12.16
   130   2                   12.16                   12.16      16.079999999999998
   131   2                   12.16      14.120000000000001      18.039999999999999
   132   2      14.120000000000001                   12.16      18.039999999999999
   133   2      14.120000000000001      14.120000000000001      16.079999999999998
   134   2                   12.16                   12.16                      20
   135   1                   12.16      14.120000000000001      21.960000000000001
   136   3      14.120000000000001                   12.16      21.960000000000001
   137   2      14.120000000000001      14.120000000000001                      20
   138   2                   12.16                   12.16      23.920000000000002
   139   2                   12.16      14.120000000000001      25.880000000000003
   140   1      14.120000000000001                   12.16      25.880000000000003
   141   3      14.120000000000001      14.120000000000001      23.920000000000002
   142   1                   12.16                   12.16                   27.84
   143   2                   12.16      14.120000000000001      29.800000000000001
   144   1      14.120000000000001                   12.16      29.800000000000001
   145   1      14.120000000000001      14.120000000000001                   27.84
   146   1      14.120000000000001      14.120000000000001      31.759999999999998
   147   2                   12.16      16.079999999999998      8.2400000000000002
   148   1                   12.16      18.039999999999999      10.199999999999999
   149   2      14.120000000000001      16.079999999999998      10.199999999999999
   150   2      14.120000000000001      18.039999999999999      8.2400000000000002
   151   2                   12.16      16.079999999999998                   12.16
   152   2                   12.16      18.039999999999999      14.120000000000001
   153   2      14.120000000000001      16.079999999999998      14.120000000000001
   154   1      14.120000000000001      18.039999999999999                   12.16
   155   2                   12.16      16.079999999999998      16.079999999999998
   156   1                   12.16      18.039999999999999      18.039999999999999
   157   1      14.120000000000001      16.079999999999998      18.039999999999999
   158   2      14.120000000000001      18.039999999999999      16.079999999999998
   159   1                   12.16      16.079999999999998                      20
   160   1                   12.16      18.039999999999999      21.960000000000001
   161   2      14.120000000000001      16.079999999999998      21.960000000000001
   162   2      14.120000000000001      18.039999999999999                      20
   163   1                   12.16      16.079999999999998      23.920000000000002
   164   3                   12.16      18.039999999999999      25.880000000000003
   165   1      14.120000000000001      16.079999999999998      25.880000000000003
   166   1      14.120000000000001      18.039999999999999      23.920000000000002
   167   2                   12.16      16.079999999999998                   27.84
   168   1                   12.16      18.039999999999999      29.800000000000001
   169   2      14.120000000000001      16.079999999999998      29.800000000000001
   170   2      14.120000000000001      18.039999999999999                   27.84
   171   2                   12.16      16.079999999999998      31.759999999999998
   172   1      14.120000000000001      18.039999999999999      31.759999999999998
   173   1      14.120000000000001                      20      6.2800000000000011
   174   3                   12.16                      20      8.2400000000000002
   175   2                   12.16      21.960000000000001      10.199999999999999
   176   3      14.120000000000001                      20      10.199999999999999
   177   3      14.120000000000001      21.960000000000001      8.2400000000000002
   178   2                   12.16                      20                   12.16
   179   2                   12.16      21.960000000000001      14.120000000000001
   180   2      14.120000000000001                      20      14.120000000000001
   181   1      14.120000000000001      21.960000000000001                   12.16
   182   2                   12.16                      20      16.079999999999998
   183   3                   12.16      21.960000000000001      18.039999999999999
   184   2      14.120000000000001                      20      18.039999999999999
   185   3      14.120000000000001      21.960000000000001      16.079999999999998
   186   2                   12.16                      20                      20
   187   2                   12.16      21.960000000000001      21.960000000000001
   188   3      14.120000000000001                      20      21.960000000000001
   189   1      14.120000000000001      21.960000000000001                      20
   190   2                   12.16                      20      23.920000000000002
   191   2                   12.16      21.960000000000001      25.880000000000003
   192   3      14.120000000000001                      20      25.880000000000003
   193   2      14.120000000000001      21.960000000000001      23.920000000000002
   194   2                   12.16                      20                   27.84
   195   2                   12.16      21.960000000000001      29.800000000000001
   196   2      14.120000000000001                      20      29.800000000000001
   197   2      14.120000000000001      21.960000000000001                   27.84
   198   1                   12.16                      20      31.759999999999998
   199   2      14.120000000000001                      20      33.719999999999999
   200   2      14.120000000000001      21.960000000000001      31.759999999999998
   201   1                   12.16      23.920000000000002      8.2400000000000002
   202   2                   12.16      25.880000000000003      10.199999999999999
   203   1      14.120000000000001      23.920000000000002      10.199999999999999
   204   2      14.120000000000001      25.880000000000003      8.2400000000000002
   205   3                   12.16      23.920000000000002                   12.16
   206   2                   12.16      25.880000000000003      14.120000000000001
   207   2      14.120000000000001      23.920000000000002      14.120000000000001
   208   2      14.120000000000001      25.880000000000003                   12.16
   209   2                   12.16      23.920000000000002      16.079999999999998
   210   2                   12.16      25.880000000000003      18.039999999999999
   211   2      14.120000000000001      23.920000000000002      18.039999999999999
   212   1      14.120000000000001      25.880000000000003      16.079999999999998
   213   1                   12.16      23.920000000000002                      20
   214   2                   12.16      25.880000000000003      21.960000000000001
   215   2      14.120000000000001      23.920000000000002      21.960000000000001
   216   1      14.120000000000001      25.880000000000003                      20
   217   1                   12.16      23.920000000000002      23.920000000000002
   218   2                   12.16      25.880000000000003      25.880000000000003
   219   2      14.120000000000001      23.920000000000002      25.880000000000003
   220   2      14.120000000000001      25.880000000000003      23.920000000000002
   221   2                   12.16      23.920000000000002                   27.84
   222   1                   12.16      25.880000000000003      29.800000000000001
   223   1      14.120000000000001      23.920000000000002      29.800000000000001
   224   2      14.120000000000001      25.880000000000003                   27.84
   225   2                   12.16      23.920000000000002      31.759999999999998
   226   2      14.120000000000001      25.880000000000003      31.759999999999998
   227   1      14.120000000000001                   27.84      10.199999999999999
   228   2                   12.16                   27.84                   12.16
   229   1                   12.16      29.800000000000001      14.120000000000001
   230   1      14.120000000000001                   27.84      14.120000000000001
   231   1      14.120000000000001      29.800000000000001                   12.16
   232   3                   12.16                   27.84      16.079999999999998
   233   3                   12.16      29.800000000000001      18.039999999999999
   234   2      14.120000000000001                   27.84      18.039999999999999
   235   1      14.120000000000001      29.800000000000001      16.079999999999998
   236   2                   12.16                   27.84                      20
   237   1                   12.16      29.800000000000001      21.960000000000001
   238   1      14.120000000000001                   27.84      21.960000000000001
   239   2      14.120000000000001      29.800000000000001                      20
   240   2                   12.16                   27.84      23.920000000000002
   241   2                   12.16      29.800000000000001      25.880000000000003
   242   3      14.120000000000001                   27.84      25.880000000000003
   243   1      14.120000000000001      29.800000000000001      23.920000000000002
   244   1                   12.16                   27.84                   27.84
   245   1      14.120000000000001                   27.84      29.800000000000001
   246   2      14.120000000000001      29.800000000000001                   27.84
   247   1      14.120000000000001      31.759999999999998      14.120000000000001
   248   2                   12.16      31.759999999999998      16.079999999999998
   249   3      14.120000000000001      31.759999999999998      18.039999999999999
   250   2                   12.16      31.759999999999998                      20
   251   1      14.120000000000001      31.759999999999998      21.960000000000001
   252   3      14.120000000000001      33.719999999999999                      20
   253   2                   12.16      31.759999999999998      23.920000000000002
   254   3      14.120000000000001      31.759999999999998      25.880000000000003
   255   3      16.079999999999998      6.2800000000000011      18.039999999999999
   256   2      18.039999999999999      6.2800000000000011      16.079999999999998
   257   1      16.079999999999998      6.2800000000000011      21.960000000000001
   258   1      18.039999999999999      6.2800000000000011                      20
   259   2      18.039999999999999      6.2800000000000011      23.920000000000002
   260   3      16.079999999999998      10.199999999999999      10.199999999999999
   261   1      16.079999999999998      8.2400000000000002                   12.16
   262   3      16.079999999999998      10.199999999999999      14.120000000000001
   263   2      18.039999999999999      8.2400000000000002      14.120000000000001
   264   2      18.039999999999999      10.199999999999999                   12.16
   265   2      16.079999999999998      8.2400000000000002      16.079999999999998
   266   3      16.079999999999998      10.199999999999999      18.039999999999999
   267   1      18.039999999999999      8.2400000000000002      18.039999999999999
   268   2      18.039999999999999      10.199999999999999      16.079999999999998
   269   2      16.079999999999998      8.2400000000000002                      20
   270   3      16.079999999999998      10.199999999999999      21.960000000000001
   271   2      18.039999999999999      8.2400000000000002      21.960000000000001
   272   2      18.039999999999999      10.199999999999999                      20
   273   1      16.079999999999998      8.2400000000000002      23.920000000000002
   274   1      16.079999999999998      10.199999999999999      25.880000000000003
   275   2      18.039999999999999      8.2400000000000002      25.880000000000003
   276   3      18.039999999999999      10.199999999999999      23.920000000000002
   277   3      16.079999999999998      8.2400000000000002                   27.84
   278   1      16.079999999999998      10.199999999999999      29.800000000000001
   279   2      18.039999999999999      10.199999999999999                   27.84
   280   2      16.079999999999998                   12.16      8.2400000000000002
   281   3      16.079999999999998      14.120000000000001      10.199999999999999
   282   1      18.039999999999999                   12.16      10.199999999999999
   283   3      18.039999999999999      14.120000000000001      8.2400000000000002
   284   2      16.079999999999998                   12.16                   12.16
   285   3      16.079999999999998      14.120000000000001      14.120000000000001
   286   2      18.039999999999999                   12.16      14.120000000000001
   287   1      18.039999999999999      14.120000000000001                   12.16
   288   2      16.079999999999998                   12.16      16.079999999999998
   289   2      16.079999999999998      14.120000000000001      18.039999999999999
   290   1      18.039999999999999                   12.16      18.039999999999999
   291   2      18.039999999999999      14.120000000000001      16.079999999999998
   292   2      16.079999999999998                   12.16                      20
   293   2      16.079999999999998      14.120000000000001      21.960000000000001
   294   3      18.039999999999999                   12.16      21.960000000000001
   295   2      18.039999999999999      14.120000000000001                      20
   296   2      16.079999999999998                   12.16      23.920000000000002
   297   2      16.079999999999998      14.120000000000001      25.880000000000003
   298   3      18.039999999999999                   12.16      25.880000000000003
   299   2      18.039999999999999      14.120000000000001      23.920000000000002
   300   2      16.079999999999998                   12.16                   27.84
   301   1      16.079999999999998      14.120000000000001      29.800000000000001
   302   3      18.039999999999999                   12.16      29.800000000000001
   303   2      18.039999999999999      14.120000000000001                   27.84
   304   1      16.079999999999998                   12.16      31.759999999999998
   305   1      18.039999999999999      14.120000000000001      31.759999999999998
   306   2      16.079999999999998      18.039999999999999      6.2800000000000011
   307   2      18.039999999999999      16.079999999999998      6.2800000000000011
   308   1      16.079999999999998      16.079999999999998      8.2400000000000002
   309   1      16.079999999999998      18.039999999999999      10.199999999999999
   310   2      18.039999999999999      16.079999999999998      10.199999999999999
   311   3      18.039999999999999      18.039999999999999      8.2400000000000002
   312   1      16.079999999999998      16.079999999999998                   12.16
   313   2      16.079999999999998      18.039999999999999      14.120000000000001
   314   2      18.039999999999999      16.079999999999998      14.120000000000001
   315   2      18.039999999999999      18.039999999999999                   12.16
   316   3      16.079999999999998      16.079999999999998      16.079999999999998
   317   2      16.079999999999998      18.039999999999999      18.039999999999999
   318   2      18.039999999999999      16.079999999999998      18.039999999999999
   319   2      18.039999999999999      18.039999999999999      16.079999999999998
   320   1      16.079999999999998      16.079999999999998                      20
   321   3      16.079999999999998      18.039999999999999      21.960000000000001
   322   3      18.039999999999999      16.079999999999998      21.960000000000001
   323   2      18.039999999999999      18.039999999999999                      20
   324   1      16.079999999999998      16.079999999999998      23.920000000000002
   325   2      16.079999999999998      18.039999999999999      25.880000000000003
   326   3      18.039999999999999      16.079999999999998      25.880000000000003
   327   1      18.039999999999999      18.039999999999999      23.920000000000002
   328   1      16.079999999999998      16.079999999999998                   27.84
   329   1      16.079999999999998      18.039999999999999      29.800000000000001
   330   1      18.039999999999999      16.079999999999998      29.800000000000001
   331   1      18.039999999999999      18.039999999999999                   27.84
   332   2      16.079999999999998      16.079999999999998      31.759999999999998
   333   2      16.079999999999998      18.039999999999999      33.719999999999999
   334   1      18.039999999999999      16.079999999999998      33.719999999999999
   335   2      18.039999999999999      18.039999999999999      31.759999999999998
   336   1      16.079999999999998      21.960000000000001      6.2800000000000011
   337   1      18.039999999999999                      20      6.2800000000000011
   338   3      16.079999999999998                      20      8.2400000000000002
   339   1      16.079999999999998      21.960000000000001      10.199999999999999
   340   1      18.039999999999999                      20      10.199999999999999
   341   1      18.039999999999999      21.960000000000001      8.2400000000000002
   342   2      16.079999999999998                      20                   12.16
   343   1      16.079999999999998      21.960000000000001      14.120000000000001
   344   2      18.039999999999999                      20      14.120000000000001
   345   2      18.039999999999999      21.960000000000001                   12.16
   346   1      16.079999999999998                      20      16.079999999999998
   347   1      16.079999999999998      21.960000000000001      18.039999999999999
   348   2      18.039999999999999                      20      18.039999999999999
   349   2      18.039999999999999      21.960000000000001      16.079999999999998
   350   1      16.079999999999998                      20                      20
   351   1      16.079999999999998      21.960000000000001      21.960000000000001
   352   2      18.039999999999999                      20      21.960000000000001
   353   1      18.039999999999999      21.960000000000001                      20
   354   1      16.079999999999998                      20      23.920000000000002
   355   1      16.079999999999998      21.960000000000001      25.880000000000003
   356   2      18.039999999999999                      20      25.880000000000003
   357   1      18.039999999999999      21.960000000000001      23.920000000000002
   358   2      16.079999999999998                      20                   27.84