LAMMPS (29 Sep 2021)
  using 1 OpenMP thread(s) per MPI task
  using 1 OpenMP thread(s) per MPI task
Reading data file ...
  orthogonal box = (0.0000000 0.0000000 0.0000000) to (40.000000 40.000000 40.000000)
  1 by 1 by 1 MPI processor grid
  reading atoms ...
  87 atoms
  read_data CPU = 0.010 seconds
Reading data file ...
  orthogonal box = (0.0000000 0.0000000 0.0000000) to (40.000000 40.000000 40.000000)
  1 by 1 by 1 MPI processor grid
  reading atoms ...
  43 atoms
  read_data CPU = 0.002 seconds
System init for delete_atoms ...
Neighbor list info ...
  update every 1 steps, delay 10 steps, check yes
  max neighbors/atom: 2000, page size: 100000
  master list distance cutoff = 8.4511323
  ghost atom cutoff = 8.4511323
  binsize = 4.2255661, bins = 10 10 10
  2 neighbor lists, perpetual/occasional/extra = 1 1 0
  (1) command delete_atoms, occasional
      attributes: full, newton on
      pair build: full/bin/atomonly
      stencil: full/bin/3d
      bin: standard
  (2) pair eam/alloy, perpetual
      attributes: half, newton on
      pair build: half/bin/atomonly/newton
      stencil: half/bin/3d
      bin: standard
Deleted 43 atoms, new total = 87
System init for write_data ...
Neighbor list info ...
  update every 1 steps, delay 10 steps, check yes
  max neighbors/atom: 2000, page size: 100000
  master list distance cutoff = 8.4511323
  ghost atom cutoff = 8.4511323
  binsize = 4.2255661, bins = 10 10 10
  1 neighbor lists, perpetual/occasional/extra = 1 0 0
  (1) pair eam/alloy, perpetual
      attributes: half, newton on
      pair build: half/bin/atomonly/newton
      stencil: half/bin/3d
      bin: standard
WARNING: No fixes defined, atoms won't move (../verlet.cpp:55)
Setting up Verlet run ...
  Unit style    : metal
  Current step  : 0
  Time step     : 0.001
Per MPI rank memory allocation (min/avg/max) = 3.320 | 3.320 | 3.320 Mbytes
Step Atoms Temp Press PotEng KinEng TotEng Enthalpy E_vdwl E_coul E_long E_pair Volume Density Lx Ly Lz Fmax v_ecoh 
       0       87            0   -3841.4399   -264.54101            0   -264.54101   -417.98987   -264.54101            0            0   -264.54101        64000   0.34359508           40           40           40    1.8315507   -3.0407012 
Loop time of 1.866e-06 on 1 procs for 0 steps with 87 atoms

53.6% CPU use with 1 MPI tasks x 1 OpenMP threads

MPI task timing breakdown:
Section |  min time  |  avg time  |  max time  |%varavg| %total
---------------------------------------------------------------
Pair    | 0          | 0          | 0          |   0.0 |  0.00
Neigh   | 0          | 0          | 0          |   0.0 |  0.00
Comm    | 0          | 0          | 0          |   0.0 |  0.00
Output  | 0          | 0          | 0          |   0.0 |  0.00
Modify  | 0          | 0          | 0          |   0.0 |  0.00
Other   |            | 1.866e-06  |            |       |100.00

Nlocal:        87.0000 ave          87 max          87 min
Histogram: 1 0 0 0 0 0 0 0 0 0
Nghost:         0.00000 ave           0 max           0 min
Histogram: 1 0 0 0 0 0 0 0 0 0
Neighs:        2411.00 ave        2411 max        2411 min
Histogram: 1 0 0 0 0 0 0 0 0 0

Total # of neighbors = 2411
Ave neighs/atom = 27.712644
Neighbor list builds = 0
Dangerous builds = 0

### Generated CS BNP from ./MNP/Au15SP.lmp and ./MNP/Pd10SP.lmp ###
DONE!
------------------------------------------------------------------------------------------------------------------------------

Total wall time: 0:00:00
LAMMPS (29 Sep 2021)
  using 1 OpenMP thread(s) per MPI task
  using 1 OpenMP thread(s) per MPI task
Reading data file ...
  orthogonal box = (0.0000000 0.0000000 0.0000000) to (40.000000 40.000000 40.000000)
  1 by 1 by 1 MPI processor grid
  reading atoms ...
  225 atoms
  read_data CPU = 0.003 seconds
Reading data file ...
  orthogonal box = (0.0000000 0.0000000 0.0000000) to (40.000000 40.000000 40.000000)
  1 by 1 by 1 MPI processor grid
  reading atoms ...
  43 atoms
  read_data CPU = 0.001 seconds
System init for delete_atoms ...
Neighbor list info ...
  update every 1 steps, delay 10 steps, check yes
  max neighbors/atom: 2000, page size: 100000
  master list distance cutoff = 8.4511323
  ghost atom cutoff = 8.4511323
  binsize = 4.2255661, bins = 10 10 10
  2 neighbor lists, perpetual/occasional/extra = 1 1 0
  (1) command delete_atoms, occasional
      attributes: full, newton on
      pair build: full/bin/atomonly
      stencil: full/bin/3d
      bin: standard
  (2) pair eam/alloy, perpetual
      attributes: half, newton on
      pair build: half/bin/atomonly/newton
      stencil: half/bin/3d
      bin: standard
Deleted 43 atoms, new total = 225
System init for write_data ...
Neighbor list info ...
  update every 1 steps, delay 10 steps, check yes
  max neighbors/atom: 2000, page size: 100000
  master list distance cutoff = 8.4511323
  ghost atom cutoff = 8.4511323
  binsize = 4.2255661, bins = 10 10 10
  1 neighbor lists, perpetual/occasional/extra = 1 0 0
  (1) pair eam/alloy, perpetual
      attributes: half, newton on
      pair build: half/bin/atomonly/newton
      stencil: half/bin/3d
      bin: standard
WARNING: No fixes defined, atoms won't move (../verlet.cpp:55)
Setting up Verlet run ...
  Unit style    : metal
  Current step  : 0
  Time step     : 0.001
Per MPI rank memory allocation (min/avg/max) = 3.321 | 3.321 | 3.321 Mbytes
Step Atoms Temp Press PotEng KinEng TotEng Enthalpy E_vdwl E_coul E_long E_pair Volume Density Lx Ly Lz Fmax v_ecoh 
       0      225            0   -8578.9761    -770.1641            0    -770.1641    -1112.857    -770.1641            0            0    -770.1641        64000    1.0488535           40           40           40    1.4477083   -3.4229516 
Loop time of 1.395e-06 on 1 procs for 0 steps with 225 atoms

71.7% CPU use with 1 MPI tasks x 1 OpenMP threads

MPI task timing breakdown:
Section |  min time  |  avg time  |  max time  |%varavg| %total
---------------------------------------------------------------
Pair    | 0          | 0          | 0          |   0.0 |  0.00
Neigh   | 0          | 0          | 0          |   0.0 |  0.00
Comm    | 0          | 0          | 0          |   0.0 |  0.00
Output  | 0          | 0          | 0          |   0.0 |  0.00
Modify  | 0          | 0          | 0          |   0.0 |  0.00
Other   |            | 1.395e-06  |            |       |100.00

Nlocal:        225.000 ave         225 max         225 min
Histogram: 1 0 0 0 0 0 0 0 0 0
Nghost:         0.00000 ave           0 max           0 min
Histogram: 1 0 0 0 0 0 0 0 0 0
Neighs:        8519.00 ave        8519 max        8519 min
Histogram: 1 0 0 0 0 0 0 0 0 0

Total # of neighbors = 8519
Ave neighs/atom = 37.862222
Neighbor list builds = 0
Dangerous builds = 0

### Generated CS BNP from ./MNP/Au20SP.lmp and ./MNP/Pd10SP.lmp ###
DONE!
------------------------------------------------------------------------------------------------------------------------------

Total wall time: 0:00:00
LAMMPS (29 Sep 2021)
  using 1 OpenMP thread(s) per MPI task
  using 1 OpenMP thread(s) per MPI task
Reading data file ...
  orthogonal box = (0.0000000 0.0000000 0.0000000) to (40.000000 40.000000 40.000000)
  1 by 1 by 1 MPI processor grid
  reading atoms ...
  225 atoms
  read_data CPU = 0.002 seconds
Reading data file ...
  orthogonal box = (0.0000000 0.0000000 0.0000000) to (40.000000 40.000000 40.000000)
  1 by 1 by 1 MPI processor grid
  reading atoms ...
  135 atoms
  read_data CPU = 0.001 seconds
System init for delete_atoms ...
Neighbor list info ...
  update every 1 steps, delay 10 steps, check yes
  max neighbors/atom: 2000, page size: 100000
  master list distance cutoff = 8.4511323
  ghost atom cutoff = 8.4511323
  binsize = 4.2255661, bins = 10 10 10
  2 neighbor lists, perpetual/occasional/extra = 1 1 0
  (1) command delete_atoms, occasional
      attributes: full, newton on
      pair build: full/bin/atomonly
      stencil: full/bin/3d
      bin: standard
  (2) pair eam/alloy, perpetual
      attributes: half, newton on
      pair build: half/bin/atomonly/newton
      stencil: half/bin/3d
      bin: standard
Deleted 135 atoms, new total = 225
System init for write_data ...
Neighbor list info ...
  update every 1 steps, delay 10 steps, check yes
  max neighbors/atom: 2000, page size: 100000
  master list distance cutoff = 8.4511323
  ghost atom cutoff = 8.4511323
  binsize = 4.2255661, bins = 10 10 10
  1 neighbor lists, perpetual/occasional/extra = 1 0 0
  (1) pair eam/alloy, perpetual
      attributes: half, newton on
      pair build: half/bin/atomonly/newton
      stencil: half/bin/3d
      bin: standard
WARNING: No fixes defined, atoms won't move (../verlet.cpp:55)
Setting up Verlet run ...
  Unit style    : metal
  Current step  : 0
  Time step     : 0.001
Per MPI rank memory allocation (min/avg/max) = 3.321 | 3.321 | 3.321 Mbytes
Step Atoms Temp Press PotEng KinEng TotEng Enthalpy E_vdwl E_coul E_long E_pair Volume Density Lx Ly Lz Fmax v_ecoh 
       0      225            0    -8811.214   -728.74029            0   -728.74029   -1080.7101   -728.74029            0            0   -728.74029        64000   0.83270838           40           40           40    1.8709134   -3.2388457 
Loop time of 8.56e-07 on 1 procs for 0 steps with 225 atoms

116.8% CPU use with 1 MPI tasks x 1 OpenMP threads

MPI task timing breakdown:
Section |  min time  |  avg time  |  max time  |%varavg| %total
---------------------------------------------------------------
Pair    | 0          | 0          | 0          |   0.0 |  0.00
Neigh   | 0          | 0          | 0          |   0.0 |  0.00
Comm    | 0          | 0          | 0          |   0.0 |  0.00
Output  | 0          | 0          | 0          |   0.0 |  0.00
Modify  | 0          | 0          | 0          |   0.0 |  0.00
Other   |            | 8.56e-07   |            |       |100.00

Nlocal:        225.000 ave         225 max         225 min
Histogram: 1 0 0 0 0 0 0 0 0 0
Nghost:         0.00000 ave           0 max           0 min
Histogram: 1 0 0 0 0 0 0 0 0 0
Neighs:        9179.00 ave        9179 max        9179 min
Histogram: 1 0 0 0 0 0 0 0 0 0

Total # of neighbors = 9179
Ave neighs/atom = 40.795556
Neighbor list builds = 0
Dangerous builds = 0

### Generated CS BNP from ./MNP/Au20SP.lmp and ./MNP/Pd15SP.lmp ###
DONE!
------------------------------------------------------------------------------------------------------------------------------

Total wall time: 0:00:00
LAMMPS (29 Sep 2021)
  using 1 OpenMP thread(s) per MPI task
  using 1 OpenMP thread(s) per MPI task
Reading data file ...
  orthogonal box = (0.0000000 0.0000000 0.0000000) to (40.000000 40.000000 40.000000)
  1 by 1 by 1 MPI processor grid
  reading atoms ...
  459 atoms
  read_data CPU = 0.002 seconds
Reading data file ...
  orthogonal box = (0.0000000 0.0000000 0.0000000) to (40.000000 40.000000 40.000000)
  1 by 1 by 1 MPI processor grid
  reading atoms ...
  43 atoms
  read_data CPU = 0.001 seconds
System init for delete_atoms ...
Neighbor list info ...
  update every 1 steps, delay 10 steps, check yes
  max neighbors/atom: 2000, page size: 100000
  master list distance cutoff = 8.4511323
  ghost atom cutoff = 8.4511323
  binsize = 4.2255661, bins = 10 10 10
  2 neighbor lists, perpetual/occasional/extra = 1 1 0
  (1) command delete_atoms, occasional
      attributes: full, newton on
      pair build: full/bin/atomonly
      stencil: full/bin/3d
      bin: standard
  (2) pair eam/alloy, perpetual
      attributes: half, newton on
      pair build: half/bin/atomonly/newton
      stencil: half/bin/3d
      bin: standard
Deleted 43 atoms, new total = 459
System init for write_data ...
Neighbor list info ...
  update every 1 steps, delay 10 steps, check yes
  max neighbors/atom: 2000, page size: 100000
  master list distance cutoff = 8.4511323
  ghost atom cutoff = 8.4511323
  binsize = 4.2255661, bins = 10 10 10
  1 neighbor lists, perpetual/occasional/extra = 1 0 0
  (1) pair eam/alloy, perpetual
      attributes: half, newton on
      pair build: half/bin/atomonly/newton
      stencil: half/bin/3d
      bin: standard
WARNING: No fixes defined, atoms won't move (../verlet.cpp:55)
Setting up Verlet run ...
  Unit style    : metal
  Current step  : 0
  Time step     : 0.001
Per MPI rank memory allocation (min/avg/max) = 3.323 | 3.323 | 3.323 Mbytes
Step Atoms Temp Press PotEng KinEng TotEng Enthalpy E_vdwl E_coul E_long E_pair Volume Density Lx Ly Lz Fmax v_ecoh 
       0      459            0   -13467.567   -1628.4317            0   -1628.4317   -2166.4026   -1628.4317            0            0   -1628.4317        64000    2.2447264           40           40           40    2.0616174   -3.5477816 
Loop time of 1.591e-06 on 1 procs for 0 steps with 459 atoms

62.9% CPU use with 1 MPI tasks x 1 OpenMP threads

MPI task timing breakdown:
Section |  min time  |  avg time  |  max time  |%varavg| %total
---------------------------------------------------------------
Pair    | 0          | 0          | 0          |   0.0 |  0.00
Neigh   | 0          | 0          | 0          |   0.0 |  0.00
Comm    | 0          | 0          | 0          |   0.0 |  0.00
Output  | 0          | 0          | 0          |   0.0 |  0.00
Modify  | 0          | 0          | 0          |   0.0 |  0.00
Other   |            | 1.591e-06  |            |       |100.00

Nlocal:        459.000 ave         459 max         459 min
Histogram: 1 0 0 0 0 0 0 0 0 0
Nghost:        6.00000 ave           6 max           6 min
Histogram: 1 0 0 0 0 0 0 0 0 0
Neighs:        20183.0 ave       20183 max       20183 min
Histogram: 1 0 0 0 0 0 0 0 0 0

Total # of neighbors = 20183
Ave neighs/atom = 43.971678
Neighbor list builds = 0
Dangerous builds = 0

### Generated CS BNP from ./MNP/Au25SP.lmp and ./MNP/Pd10SP.lmp ###
DONE!
------------------------------------------------------------------------------------------------------------------------------

Total wall time: 0:00:00
LAMMPS (29 Sep 2021)
  using 1 OpenMP thread(s) per MPI task
  using 1 OpenMP thread(s) per MPI task
Reading data file ...
  orthogonal box = (0.0000000 0.0000000 0.0000000) to (40.000000 40.000000 40.000000)
  1 by 1 by 1 MPI processor grid
  reading atoms ...
  459 atoms
  read_data CPU = 0.002 seconds
Reading data file ...
  orthogonal box = (0.0000000 0.0000000 0.0000000) to (40.000000 40.000000 40.000000)
  1 by 1 by 1 MPI processor grid
  reading atoms ...
  135 atoms
  read_data CPU = 0.001 seconds
System init for delete_atoms ...
Neighbor list info ...
  update every 1 steps, delay 10 steps, check yes
  max neighbors/atom: 2000, page size: 100000
  master list distance cutoff = 8.4511323
  ghost atom cutoff = 8.4511323
  binsize = 4.2255661, bins = 10 10 10
  2 neighbor lists, perpetual/occasional/extra = 1 1 0
  (1) command delete_atoms, occasional
      attributes: full, newton on
      pair build: full/bin/atomonly
      stencil: full/bin/3d
      bin: standard
  (2) pair eam/alloy, perpetual
      attributes: half, newton on
      pair build: half/bin/atomonly/newton
      stencil: half/bin/3d
      bin: standard
Deleted 135 atoms, new total = 459
System init for write_data ...
Neighbor list info ...
  update every 1 steps, delay 10 steps, check yes
  max neighbors/atom: 2000, page size: 100000
  master list distance cutoff = 8.4511323
  ghost atom cutoff = 8.4511323
  binsize = 4.2255661, bins = 10 10 10
  1 neighbor lists, perpetual/occasional/extra = 1 0 0
  (1) pair eam/alloy, perpetual
      attributes: half, newton on
      pair build: half/bin/atomonly/newton
      stencil: half/bin/3d
      bin: standard
WARNING: No fixes defined, atoms won't move (../verlet.cpp:55)
Setting up Verlet run ...
  Unit style    : metal
  Current step  : 0
  Time step     : 0.001
Per MPI rank memory allocation (min/avg/max) = 3.323 | 3.323 | 3.323 Mbytes
Step Atoms Temp Press PotEng KinEng TotEng Enthalpy E_vdwl E_coul E_long E_pair Volume Density Lx Ly Lz Fmax v_ecoh 
       0      459            0   -16494.734   -1606.5208            0   -1606.5208   -2265.4138   -1606.5208            0            0   -1606.5208        64000    2.0285813           40           40           40    2.0929733   -3.5000452 
Loop time of 9.02e-07 on 1 procs for 0 steps with 459 atoms

0.0% CPU use with 1 MPI tasks x 1 OpenMP threads

MPI task timing breakdown:
Section |  min time  |  avg time  |  max time  |%varavg| %total
---------------------------------------------------------------
Pair    | 0          | 0          | 0          |   0.0 |  0.00
Neigh   | 0          | 0          | 0          |   0.0 |  0.00
Comm    | 0          | 0          | 0          |   0.0 |  0.00
Output  | 0          | 0          | 0          |   0.0 |  0.00
Modify  | 0          | 0          | 0          |   0.0 |  0.00
Other   |            | 9.02e-07   |            |       |100.00

Nlocal:        459.000 ave         459 max         459 min
Histogram: 1 0 0 0 0 0 0 0 0 0
Nghost:        6.00000 ave           6 max           6 min
Histogram: 1 0 0 0 0 0 0 0 0 0
Neighs:        20843.0 ave       20843 max       20843 min
Histogram: 1 0 0 0 0 0 0 0 0 0

Total # of neighbors = 20843
Ave neighs/atom = 45.409586
Neighbor list builds = 0
Dangerous builds = 0

### Generated CS BNP from ./MNP/Au25SP.lmp and ./MNP/Pd15SP.lmp ###
DONE!
------------------------------------------------------------------------------------------------------------------------------

Total wall time: 0:00:00
LAMMPS (29 Sep 2021)
  using 1 OpenMP thread(s) per MPI task
  using 1 OpenMP thread(s) per MPI task
Reading data file ...
  orthogonal box = (0.0000000 0.0000000 0.0000000) to (40.000000 40.000000 40.000000)
  1 by 1 by 1 MPI processor grid
  reading atoms ...
  459 atoms
  read_data CPU = 0.002 seconds
Reading data file ...
  orthogonal box = (0.0000000 0.0000000 0.0000000) to (40.000000 40.000000 40.000000)
  1 by 1 by 1 MPI processor grid
  reading atoms ...
  321 atoms
  read_data CPU = 0.002 seconds
System init for delete_atoms ...
Neighbor list info ...
  update every 1 steps, delay 10 steps, check yes
  max neighbors/atom: 2000, page size: 100000
  master list distance cutoff = 8.4511323
  ghost atom cutoff = 8.4511323
  binsize = 4.2255661, bins = 10 10 10
  2 neighbor lists, perpetual/occasional/extra = 1 1 0
  (1) command delete_atoms, occasional
      attributes: full, newton on
      pair build: full/bin/atomonly
      stencil: full/bin/3d
      bin: standard
  (2) pair eam/alloy, perpetual
      attributes: half, newton on
      pair build: half/bin/atomonly/newton
      stencil: half/bin/3d
      bin: standard
Deleted 321 atoms, new total = 459
System init for write_data ...
Neighbor list info ...
  update every 1 steps, delay 10 steps, check yes
  max neighbors/atom: 2000, page size: 100000
  master list distance cutoff = 8.4511323
  ghost atom cutoff = 8.4511323
  binsize = 4.2255661, bins = 10 10 10
  1 neighbor lists, perpetual/occasional/extra = 1 0 0
  (1) pair eam/alloy, perpetual
      attributes: half, newton on
      pair build: half/bin/atomonly/newton
      stencil: half/bin/3d
      bin: standard
WARNING: No fixes defined, atoms won't move (../verlet.cpp:55)
Setting up Verlet run ...
  Unit style    : metal
  Current step  : 0
  Time step     : 0.001
Per MPI rank memory allocation (min/avg/max) = 3.323 | 3.323 | 3.323 Mbytes
Step Atoms Temp Press PotEng KinEng TotEng Enthalpy E_vdwl E_coul E_long E_pair Volume Density Lx Ly Lz Fmax v_ecoh 
       0      459            0   -15204.988   -1523.4116            0   -1523.4116   -2130.7849   -1523.4116            0            0   -1523.4116        64000    1.5915923           40           40           40    2.2254323   -3.3189796 
Loop time of 8.6e-07 on 1 procs for 0 steps with 459 atoms

0.0% CPU use with 1 MPI tasks x 1 OpenMP threads

MPI task timing breakdown:
Section |  min time  |  avg time  |  max time  |%varavg| %total
---------------------------------------------------------------
Pair    | 0          | 0          | 0          |   0.0 |  0.00
Neigh   | 0          | 0          | 0          |   0.0 |  0.00
Comm    | 0          | 0          | 0          |   0.0 |  0.00
Output  | 0          | 0          | 0          |   0.0 |  0.00
Modify  | 0          | 0          | 0          |   0.0 |  0.00
Other   |            | 8.6e-07    |            |       |100.00

Nlocal:        459.000 ave         459 max         459 min
Histogram: 1 0 0 0 0 0 0 0 0 0
Nghost:        6.00000 ave           6 max           6 min
Histogram: 1 0 0 0 0 0 0 0 0 0
Neighs:        22655.0 ave       22655 max       22655 min
Histogram: 1 0 0 0 0 0 0 0 0 0

Total # of neighbors = 22655
Ave neighs/atom = 49.357298
Neighbor list builds = 0
Dangerous builds = 0

### Generated CS BNP from ./MNP/Au25SP.lmp and ./MNP/Pd20SP.lmp ###
DONE!
------------------------------------------------------------------------------------------------------------------------------

Total wall time: 0:00:00
LAMMPS (29 Sep 2021)
  using 1 OpenMP thread(s) per MPI task
  using 1 OpenMP thread(s) per MPI task
Reading data file ...
  orthogonal box = (0.0000000 0.0000000 0.0000000) to (40.000000 40.000000 40.000000)
  1 by 1 by 1 MPI processor grid
  reading atoms ...
  791 atoms
  read_data CPU = 0.003 seconds
Reading data file ...
  orthogonal box = (0.0000000 0.0000000 0.0000000) to (40.000000 40.000000 40.000000)
  1 by 1 by 1 MPI processor grid
  reading atoms ...
  43 atoms
  read_data CPU = 0.001 seconds
System init for delete_atoms ...
Neighbor list info ...
  update every 1 steps, delay 10 steps, check yes
  max neighbors/atom: 2000, page size: 100000
  master list distance cutoff = 8.4511323
  ghost atom cutoff = 8.4511323
  binsize = 4.2255661, bins = 10 10 10
  2 neighbor lists, perpetual/occasional/extra = 1 1 0
  (1) command delete_atoms, occasional
      attributes: full, newton on
      pair build: full/bin/atomonly
      stencil: full/bin/3d
      bin: standard
  (2) pair eam/alloy, perpetual
      attributes: half, newton on
      pair build: half/bin/atomonly/newton
      stencil: half/bin/3d
      bin: standard
Deleted 43 atoms, new total = 791
System init for write_data ...
Neighbor list info ...
  update every 1 steps, delay 10 steps, check yes
  max neighbors/atom: 2000, page size: 100000
  master list distance cutoff = 8.4511323
  ghost atom cutoff = 8.4511323
  binsize = 4.2255661, bins = 10 10 10
  1 neighbor lists, perpetual/occasional/extra = 1 0 0
  (1) pair eam/alloy, perpetual
      attributes: half, newton on
      pair build: half/bin/atomonly/newton
      stencil: half/bin/3d
      bin: standard
WARNING: No fixes defined, atoms won't move (../verlet.cpp:55)
Setting up Verlet run ...
  Unit style    : metal
  Current step  : 0
  Time step     : 0.001
Per MPI rank memory allocation (min/avg/max) = 3.326 | 3.326 | 3.326 Mbytes
Step Atoms Temp Press PotEng KinEng TotEng Enthalpy E_vdwl E_coul E_long E_pair Volume Density Lx Ly Lz Fmax v_ecoh 
       0      791            0   -19056.443   -2870.3036            0   -2870.3036   -3631.5258   -2870.3036            0            0   -2870.3036        64000    3.9414349           40           40           40    1.4555663   -3.6287023 
Loop time of 1.065e-06 on 1 procs for 0 steps with 791 atoms

93.9% CPU use with 1 MPI tasks x 1 OpenMP threads

MPI task timing breakdown:
Section |  min time  |  avg time  |  max time  |%varavg| %total
---------------------------------------------------------------
Pair    | 0          | 0          | 0          |   0.0 |  0.00
Neigh   | 0          | 0          | 0          |   0.0 |  0.00
Comm    | 0          | 0          | 0          |   0.0 |  0.00
Output  | 0          | 0          | 0          |   0.0 |  0.00
Modify  | 0          | 0          | 0          |   0.0 |  0.00
Other   |            | 1.065e-06  |            |       |100.00

Nlocal:        791.000 ave         791 max         791 min
Histogram: 1 0 0 0 0 0 0 0 0 0
Nghost:        174.000 ave         174 max         174 min
Histogram: 1 0 0 0 0 0 0 0 0 0
Neighs:        37999.0 ave       37999 max       37999 min
Histogram: 1 0 0 0 0 0 0 0 0 0

Total # of neighbors = 37999
Ave neighs/atom = 48.039191
Neighbor list builds = 0
Dangerous builds = 0

### Generated CS BNP from ./MNP/Au30SP.lmp and ./MNP/Pd10SP.lmp ###
DONE!
------------------------------------------------------------------------------------------------------------------------------

Total wall time: 0:00:00
LAMMPS (29 Sep 2021)
  using 1 OpenMP thread(s) per MPI task
  using 1 OpenMP thread(s) per MPI task
Reading data file ...
  orthogonal box = (0.0000000 0.0000000 0.0000000) to (40.000000 40.000000 40.000000)
  1 by 1 by 1 MPI processor grid
  reading atoms ...
  791 atoms
  read_data CPU = 0.002 seconds
Reading data file ...
  orthogonal box = (0.0000000 0.0000000 0.0000000) to (40.000000 40.000000 40.000000)
  1 by 1 by 1 MPI processor grid
  reading atoms ...
  135 atoms
  read_data CPU = 0.001 seconds
System init for delete_atoms ...
Neighbor list info ...
  update every 1 steps, delay 10 steps, check yes
  max neighbors/atom: 2000, page size: 100000
  master list distance cutoff = 8.4511323
  ghost atom cutoff = 8.4511323
  binsize = 4.2255661, bins = 10 10 10
  2 neighbor lists, perpetual/occasional/extra = 1 1 0
  (1) command delete_atoms, occasional
      attributes: full, newton on
      pair build: full/bin/atomonly
      stencil: full/bin/3d
      bin: standard
  (2) pair eam/alloy, perpetual
      attributes: half, newton on
      pair build: half/bin/atomonly/newton
      stencil: half/bin/3d
      bin: standard
Deleted 135 atoms, new total = 791
System init for write_data ...
Neighbor list info ...
  update every 1 steps, delay 10 steps, check yes
  max neighbors/atom: 2000, page size: 100000
  master list distance cutoff = 8.4511323
  ghost atom cutoff = 8.4511323
  binsize = 4.2255661, bins = 10 10 10
  1 neighbor lists, perpetual/occasional/extra = 1 0 0
  (1) pair eam/alloy, perpetual
      attributes: half, newton on
      pair build: half/bin/atomonly/newton
      stencil: half/bin/3d
      bin: standard
WARNING: No fixes defined, atoms won't move (../verlet.cpp:55)
Setting up Verlet run ...
  Unit style    : metal
  Current step  : 0
  Time step     : 0.001
Per MPI rank memory allocation (min/avg/max) = 3.326 | 3.326 | 3.326 Mbytes
Step Atoms Temp Press PotEng KinEng TotEng Enthalpy E_vdwl E_coul E_long E_pair Volume Density Lx Ly Lz Fmax v_ecoh 
       0      791            0   -22385.479   -2853.3295            0   -2853.3295   -3747.5323   -2853.3295            0            0   -2853.3295        64000    3.7252899           40           40           40    1.4580477   -3.6072434 
Loop time of 8.07e-07 on 1 procs for 0 steps with 791 atoms

0.0% CPU use with 1 MPI tasks x 1 OpenMP threads

MPI task timing breakdown:
Section |  min time  |  avg time  |  max time  |%varavg| %total
---------------------------------------------------------------
Pair    | 0          | 0          | 0          |   0.0 |  0.00
Neigh   | 0          | 0          | 0          |   0.0 |  0.00
Comm    | 0          | 0          | 0          |   0.0 |  0.00
Output  | 0          | 0          | 0          |   0.0 |  0.00
Modify  | 0          | 0          | 0          |   0.0 |  0.00
Other   |            | 8.07e-07   |            |       |100.00

Nlocal:        791.000 ave         791 max         791 min
Histogram: 1 0 0 0 0 0 0 0 0 0
Nghost:        174.000 ave         174 max         174 min
Histogram: 1 0 0 0 0 0 0 0 0 0
Neighs:        38635.0 ave       38635 max       38635 min
Histogram: 1 0 0 0 0 0 0 0 0 0

Total # of neighbors = 38635
Ave neighs/atom = 48.843236
Neighbor list builds = 0
Dangerous builds = 0

### Generated CS BNP from ./MNP/Au30SP.lmp and ./MNP/Pd15SP.lmp ###
DONE!
------------------------------------------------------------------------------------------------------------------------------

Total wall time: 0:00:00
LAMMPS (29 Sep 2021)
  using 1 OpenMP thread(s) per MPI task
  using 1 OpenMP thread(s) per MPI task
Reading data file ...
  orthogonal box = (0.0000000 0.0000000 0.0000000) to (40.000000 40.000000 40.000000)
  1 by 1 by 1 MPI processor grid
  reading atoms ...
  791 atoms
  read_data CPU = 0.003 seconds
Reading data file ...
  orthogonal box = (0.0000000 0.0000000 0.0000000) to (40.000000 40.000000 40.000000)
  1 by 1 by 1 MPI processor grid
  reading atoms ...
  321 atoms
  read_data CPU = 0.001 seconds
System init for delete_atoms ...
Neighbor list info ...
  update every 1 steps, delay 10 steps, check yes
  max neighbors/atom: 2000, page size: 100000
  master list distance cutoff = 8.4511323
  ghost atom cutoff = 8.4511323
  binsize = 4.2255661, bins = 10 10 10
  2 neighbor lists, perpetual/occasional/extra = 1 1 0
  (1) command delete_atoms, occasional
      attributes: full, newton on
      pair build: full/bin/atomonly
      stencil: full/bin/3d
      bin: standard
  (2) pair eam/alloy, perpetual
      attributes: half, newton on
      pair build: half/bin/atomonly/newton
      stencil: half/bin/3d
      bin: standard
Deleted 321 atoms, new total = 791
System init for write_data ...
Neighbor list info ...
  update every 1 steps, delay 10 steps, check yes
  max neighbors/atom: 2000, page size: 100000
  master list distance cutoff = 8.4511323
  ghost atom cutoff = 8.4511323
  binsize = 4.2255661, bins = 10 10 10
  1 neighbor lists, perpetual/occasional/extra = 1 0 0
  (1) pair eam/alloy, perpetual
      attributes: half, newton on
      pair build: half/bin/atomonly/newton
      stencil: half/bin/3d
      bin: standard
WARNING: No fixes defined, atoms won't move (../verlet.cpp:55)
Setting up Verlet run ...
  Unit style    : metal
  Current step  : 0
  Time step     : 0.001
Per MPI rank memory allocation (min/avg/max) = 3.326 | 3.326 | 3.326 Mbytes
Step Atoms Temp Press PotEng KinEng TotEng Enthalpy E_vdwl E_coul E_long E_pair Volume Density Lx Ly Lz Fmax v_ecoh 
       0      791            0   -27388.657   -2799.1498            0   -2799.1498   -3893.2078   -2799.1498            0            0   -2799.1498        64000    3.2883009           40           40           40    1.5371916   -3.5387481 
Loop time of 9.02e-07 on 1 procs for 0 steps with 791 atoms

110.9% CPU use with 1 MPI tasks x 1 OpenMP threads

MPI task timing breakdown:
Section |  min time  |  avg time  |  max time  |%varavg| %total
---------------------------------------------------------------
Pair    | 0          | 0          | 0          |   0.0 |  0.00
Neigh   | 0          | 0          | 0          |   0.0 |  0.00
Comm    | 0          | 0          | 0          |   0.0 |  0.00
Output  | 0          | 0          | 0          |   0.0 |  0.00
Modify  | 0          | 0          | 0          |   0.0 |  0.00
Other   |            | 9.02e-07   |            |       |100.00

Nlocal:        791.000 ave         791 max         791 min
Histogram: 1 0 0 0 0 0 0 0 0 0
Nghost:        174.000 ave         174 max         174 min
Histogram: 1 0 0 0 0 0 0 0 0 0
Neighs:        40447.0 ave       40447 max       40447 min
Histogram: 1 0 0 0 0 0 0 0 0 0

Total # of neighbors = 40447
Ave neighs/atom = 51.134008
Neighbor list builds = 0
Dangerous builds = 0

### Generated CS BNP from ./MNP/Au30SP.lmp and ./MNP/Pd20SP.lmp ###
DONE!
------------------------------------------------------------------------------------------------------------------------------

Total wall time: 0:00:00
LAMMPS (29 Sep 2021)
  using 1 OpenMP thread(s) per MPI task
  using 1 OpenMP thread(s) per MPI task
Reading data file ...
  orthogonal box = (0.0000000 0.0000000 0.0000000) to (40.000000 40.000000 40.000000)
  1 by 1 by 1 MPI processor grid
  reading atoms ...
  791 atoms
  read_data CPU = 0.004 seconds
Reading data file ...
  orthogonal box = (0.0000000 0.0000000 0.0000000) to (40.000000 40.000000 40.000000)
  1 by 1 by 1 MPI processor grid
  reading atoms ...
  555 atoms
  read_data CPU = 0.003 seconds
System init for delete_atoms ...
Neighbor list info ...
  update every 1 steps, delay 10 steps, check yes
  max neighbors/atom: 2000, page size: 100000
  master list distance cutoff = 8.4511323
  ghost atom cutoff = 8.4511323
  binsize = 4.2255661, bins = 10 10 10
  2 neighbor lists, perpetual/occasional/extra = 1 1 0
  (1) command delete_atoms, occasional
      attributes: full, newton on
      pair build: full/bin/atomonly
      stencil: full/bin/3d
      bin: standard
  (2) pair eam/alloy, perpetual
      attributes: half, newton on
      pair build: half/bin/atomonly/newton
      stencil: half/bin/3d
      bin: standard
Deleted 555 atoms, new total = 791
System init for write_data ...
Neighbor list info ...
  update every 1 steps, delay 10 steps, check yes
  max neighbors/atom: 2000, page size: 100000
  master list distance cutoff = 8.4511323
  ghost atom cutoff = 8.4511323
  binsize = 4.2255661, bins = 10 10 10
  1 neighbor lists, perpetual/occasional/extra = 1 0 0
  (1) pair eam/alloy, perpetual
      attributes: half, newton on
      pair build: half/bin/atomonly/newton
      stencil: half/bin/3d
      bin: standard
WARNING: No fixes defined, atoms won't move (../verlet.cpp:55)
Setting up Verlet run ...
  Unit style    : metal
  Current step  : 0
  Time step     : 0.001
Per MPI rank memory allocation (min/avg/max) = 3.326 | 3.326 | 3.326 Mbytes
Step Atoms Temp Press PotEng KinEng TotEng Enthalpy E_vdwl E_coul E_long E_pair Volume Density Lx Ly Lz Fmax v_ecoh 
       0      791            0   -24824.915   -2689.3265            0   -2689.3265   -3680.9741   -2689.3265            0            0   -2689.3265        64000    2.7385406           40           40           40    1.9536016   -3.3999071 
Loop time of 8.34e-07 on 1 procs for 0 steps with 791 atoms

0.0% CPU use with 1 MPI tasks x 1 OpenMP threads

MPI task timing breakdown:
Section |  min time  |  avg time  |  max time  |%varavg| %total
---------------------------------------------------------------
Pair    | 0          | 0          | 0          |   0.0 |  0.00
Neigh   | 0          | 0          | 0          |   0.0 |  0.00
Comm    | 0          | 0          | 0          |   0.0 |  0.00
Output  | 0          | 0          | 0          |   0.0 |  0.00
Modify  | 0          | 0          | 0          |   0.0 |  0.00
Other   |            | 8.34e-07   |            |       |100.00

Nlocal:        791.000 ave         791 max         791 min
Histogram: 1 0 0 0 0 0 0 0 0 0
Nghost:        174.000 ave         174 max         174 min
Histogram: 1 0 0 0 0 0 0 0 0 0
Neighs:        43099.0 ave       43099 max       43099 min
Histogram: 1 0 0 0 0 0 0 0 0 0

Total # of neighbors = 43099
Ave neighs/atom = 54.486726
Neighbor list builds = 0
Dangerous builds = 0

### Generated CS BNP from ./MNP/Au30SP.lmp and ./MNP/Pd25SP.lmp ###
DONE!
------------------------------------------------------------------------------------------------------------------------------

Total wall time: 0:00:00
LAMMPS (29 Sep 2021)
  using 1 OpenMP thread(s) per MPI task
  using 1 OpenMP thread(s) per MPI task
Reading data file ...
  orthogonal box = (0.0000000 0.0000000 0.0000000) to (40.000000 40.000000 40.000000)
  1 by 1 by 1 MPI processor grid
  reading atoms ...
  87 atoms
  read_data CPU = 0.002 seconds
Reading data file ...
  orthogonal box = (0.0000000 0.0000000 0.0000000) to (40.000000 40.000000 40.000000)
  1 by 1 by 1 MPI processor grid
  reading atoms ...
  43 atoms
  read_data CPU = 0.001 seconds
System init for delete_atoms ...
Neighbor list info ...
  update every 1 steps, delay 10 steps, check yes
  max neighbors/atom: 2000, page size: 100000
  master list distance cutoff = 8.4511323
  ghost atom cutoff = 8.4511323
  binsize = 4.2255661, bins = 10 10 10
  2 neighbor lists, perpetual/occasional/extra = 1 1 0
  (1) command delete_atoms, occasional
      attributes: full, newton on
      pair build: full/bin/atomonly
      stencil: full/bin/3d
      bin: standard
  (2) pair eam/alloy, perpetual
      attributes: half, newton on
      pair build: half/bin/atomonly/newton
      stencil: half/bin/3d
      bin: standard
Deleted 43 atoms, new total = 87
System init for write_data ...
Neighbor list info ...
  update every 1 steps, delay 10 steps, check yes
  max neighbors/atom: 2000, page size: 100000
  master list distance cutoff = 8.4511323
  ghost atom cutoff = 8.4511323
  binsize = 4.2255661, bins = 10 10 10
  1 neighbor lists, perpetual/occasional/extra = 1 0 0
  (1) pair eam/alloy, perpetual
      attributes: half, newton on
      pair build: half/bin/atomonly/newton
      stencil: half/bin/3d
      bin: standard
WARNING: No fixes defined, atoms won't move (../verlet.cpp:55)
Setting up Verlet run ...
  Unit style    : metal
  Current step  : 0
  Time step     : 0.001
Per MPI rank memory allocation (min/avg/max) = 3.320 | 3.320 | 3.320 Mbytes
Step Atoms Temp Press PotEng KinEng TotEng Enthalpy E_vdwl E_coul E_long E_pair Volume Density Lx Ly Lz Fmax v_ecoh 
       0       87            0   -4522.1821   -345.85324            0   -345.85324   -526.49479   -345.85324            0            0   -345.85324        64000   0.44251079           40           40           40    1.7261312   -3.9753246 
Loop time of 1.054e-06 on 1 procs for 0 steps with 87 atoms

0.0% CPU use with 1 MPI tasks x 1 OpenMP threads

MPI task timing breakdown:
Section |  min time  |  avg time  |  max time  |%varavg| %total
---------------------------------------------------------------
Pair    | 0          | 0          | 0          |   0.0 |  0.00
Neigh   | 0          | 0          | 0          |   0.0 |  0.00
Comm    | 0          | 0          | 0          |   0.0 |  0.00
Output  | 0          | 0          | 0          |   0.0 |  0.00
Modify  | 0          | 0          | 0          |   0.0 |  0.00
Other   |            | 1.054e-06  |            |       |100.00

Nlocal:        87.0000 ave          87 max          87 min
Histogram: 1 0 0 0 0 0 0 0 0 0
Nghost:         0.00000 ave           0 max           0 min
Histogram: 1 0 0 0 0 0 0 0 0 0
Neighs:        2411.00 ave        2411 max        2411 min
Histogram: 1 0 0 0 0 0 0 0 0 0

Total # of neighbors = 2411
Ave neighs/atom = 27.712644
Neighbor list builds = 0
Dangerous builds = 0

### Generated CS BNP from ./MNP/Au15SP.lmp and ./MNP/Pt10SP.lmp ###
DONE!
------------------------------------------------------------------------------------------------------------------------------

Total wall time: 0:00:00
LAMMPS (29 Sep 2021)
  using 1 OpenMP thread(s) per MPI task
  using 1 OpenMP thread(s) per MPI task
Reading data file ...
  orthogonal box = (0.0000000 0.0000000 0.0000000) to (40.000000 40.000000 40.000000)
  1 by 1 by 1 MPI processor grid
  reading atoms ...
  225 atoms
  read_data CPU = 0.002 seconds
Reading data file ...
  orthogonal box = (0.0000000 0.0000000 0.0000000) to (40.000000 40.000000 40.000000)
  1 by 1 by 1 MPI processor grid
  reading atoms ...
  43 atoms
  read_data CPU = 0.001 seconds
System init for delete_atoms ...
Neighbor list info ...
  update every 1 steps, delay 10 steps, check yes
  max neighbors/atom: 2000, page size: 100000
  master list distance cutoff = 8.4511323
  ghost atom cutoff = 8.4511323
  binsize = 4.2255661, bins = 10 10 10
  2 neighbor lists, perpetual/occasional/extra = 1 1 0
  (1) command delete_atoms, occasional
      attributes: full, newton on
      pair build: full/bin/atomonly
      stencil: full/bin/3d
      bin: standard
  (2) pair eam/alloy, perpetual
      attributes: half, newton on
      pair build: half/bin/atomonly/newton
      stencil: half/bin/3d
      bin: standard
Deleted 43 atoms, new total = 225
System init for write_data ...
Neighbor list info ...
  update every 1 steps, delay 10 steps, check yes
  max neighbors/atom: 2000, page size: 100000
  master list distance cutoff = 8.4511323
  ghost atom cutoff = 8.4511323
  binsize = 4.2255661, bins = 10 10 10
  1 neighbor lists, perpetual/occasional/extra = 1 0 0
  (1) pair eam/alloy, perpetual
      attributes: half, newton on
      pair build: half/bin/atomonly/newton
      stencil: half/bin/3d
      bin: standard
WARNING: No fixes defined, atoms won't move (../verlet.cpp:55)
Setting up Verlet run ...
  Unit style    : metal
  Current step  : 0
  Time step     : 0.001
Per MPI rank memory allocation (min/avg/max) = 3.321 | 3.321 | 3.321 Mbytes
Step Atoms Temp Press PotEng KinEng TotEng Enthalpy E_vdwl E_coul E_long E_pair Volume Density Lx Ly Lz Fmax v_ecoh 
       0      225            0   -8555.1635   -842.38387            0   -842.38387   -1184.1255   -842.38387            0            0   -842.38387        64000    1.1477692           40           40           40    1.3765787   -3.7439283 
Loop time of 8.75e-07 on 1 procs for 0 steps with 225 atoms

114.3% CPU use with 1 MPI tasks x 1 OpenMP threads

MPI task timing breakdown:
Section |  min time  |  avg time  |  max time  |%varavg| %total
---------------------------------------------------------------
Pair    | 0          | 0          | 0          |   0.0 |  0.00
Neigh   | 0          | 0          | 0          |   0.0 |  0.00
Comm    | 0          | 0          | 0          |   0.0 |  0.00
Output  | 0          | 0          | 0          |   0.0 |  0.00
Modify  | 0          | 0          | 0          |   0.0 |  0.00
Other   |            | 8.75e-07   |            |       |100.00

Nlocal:        225.000 ave         225 max         225 min
Histogram: 1 0 0 0 0 0 0 0 0 0
Nghost:         0.00000 ave           0 max           0 min
Histogram: 1 0 0 0 0 0 0 0 0 0
Neighs:        8519.00 ave        8519 max        8519 min
Histogram: 1 0 0 0 0 0 0 0 0 0

Total # of neighbors = 8519
Ave neighs/atom = 37.862222
Neighbor list builds = 0
Dangerous builds = 0

### Generated CS BNP from ./MNP/Au20SP.lmp and ./MNP/Pt10SP.lmp ###
DONE!
------------------------------------------------------------------------------------------------------------------------------

Total wall time: 0:00:00
LAMMPS (29 Sep 2021)
  using 1 OpenMP thread(s) per MPI task
  using 1 OpenMP thread(s) per MPI task
Reading data file ...
  orthogonal box = (0.0000000 0.0000000 0.0000000) to (40.000000 40.000000 40.000000)
  1 by 1 by 1 MPI processor grid
  reading atoms ...
  225 atoms
  read_data CPU = 0.002 seconds
Reading data file ...
  orthogonal box = (0.0000000 0.0000000 0.0000000) to (40.000000 40.000000 40.000000)
  1 by 1 by 1 MPI processor grid
  reading atoms ...
  135 atoms
  read_data CPU = 0.001 seconds
System init for delete_atoms ...
Neighbor list info ...
  update every 1 steps, delay 10 steps, check yes
  max neighbors/atom: 2000, page size: 100000
  master list distance cutoff = 8.4511323
  ghost atom cutoff = 8.4511323
  binsize = 4.2255661, bins = 10 10 10
  2 neighbor lists, perpetual/occasional/extra = 1 1 0
  (1) command delete_atoms, occasional
      attributes: full, newton on
      pair build: full/bin/atomonly
      stencil: full/bin/3d
      bin: standard
  (2) pair eam/alloy, perpetual
      attributes: half, newton on
      pair build: half/bin/atomonly/newton
      stencil: half/bin/3d
      bin: standard
Deleted 135 atoms, new total = 225
System init for write_data ...
Neighbor list info ...
  update every 1 steps, delay 10 steps, check yes
  max neighbors/atom: 2000, page size: 100000
  master list distance cutoff = 8.4511323
  ghost atom cutoff = 8.4511323
  binsize = 4.2255661, bins = 10 10 10
  1 neighbor lists, perpetual/occasional/extra = 1 0 0
  (1) pair eam/alloy, perpetual
      attributes: half, newton on
      pair build: half/bin/atomonly/newton
      stencil: half/bin/3d
      bin: standard
WARNING: No fixes defined, atoms won't move (../verlet.cpp:55)
Setting up Verlet run ...
  Unit style    : metal
  Current step  : 0
  Time step     : 0.001
Per MPI rank memory allocation (min/avg/max) = 3.321 | 3.321 | 3.321 Mbytes
Step Atoms Temp Press PotEng KinEng TotEng Enthalpy E_vdwl E_coul E_long E_pair Volume Density Lx Ly Lz Fmax v_ecoh 
       0      225            0   -10390.037   -987.39476            0   -987.39476   -1402.4317   -987.39476            0            0   -987.39476        64000    1.1432577           40           40           40    1.7936547   -4.3884211 
Loop time of 8.94e-07 on 1 procs for 0 steps with 225 atoms

111.9% CPU use with 1 MPI tasks x 1 OpenMP threads

MPI task timing breakdown:
Section |  min time  |  avg time  |  max time  |%varavg| %total
---------------------------------------------------------------
Pair    | 0          | 0          | 0          |   0.0 |  0.00
Neigh   | 0          | 0          | 0          |   0.0 |  0.00
Comm    | 0          | 0          | 0          |   0.0 |  0.00
Output  | 0          | 0          | 0          |   0.0 |  0.00
Modify  | 0          | 0          | 0          |   0.0 |  0.00
Other   |            | 8.94e-07   |            |       |100.00

Nlocal:        225.000 ave         225 max         225 min
Histogram: 1 0 0 0 0 0 0 0 0 0
Nghost:         0.00000 ave           0 max           0 min
Histogram: 1 0 0 0 0 0 0 0 0 0
Neighs:        9179.00 ave        9179 max        9179 min
Histogram: 1 0 0 0 0 0 0 0 0 0

Total # of neighbors = 9179
Ave neighs/atom = 40.795556
Neighbor list builds = 0
Dangerous builds = 0

### Generated CS BNP from ./MNP/Au20SP.lmp and ./MNP/Pt15SP.lmp ###
DONE!
------------------------------------------------------------------------------------------------------------------------------

Total wall time: 0:00:00
LAMMPS (29 Sep 2021)
  using 1 OpenMP thread(s) per MPI task
  using 1 OpenMP thread(s) per MPI task
Reading data file ...
  orthogonal box = (0.0000000 0.0000000 0.0000000) to (40.000000 40.000000 40.000000)
  1 by 1 by 1 MPI processor grid
  reading atoms ...
  459 atoms
  read_data CPU = 0.002 seconds
Reading data file ...
  orthogonal box = (0.0000000 0.0000000 0.0000000) to (40.000000 40.000000 40.000000)
  1 by 1 by 1 MPI processor grid
  reading atoms ...
  43 atoms
  read_data CPU = 0.001 seconds
System init for delete_atoms ...
Neighbor list info ...
  update every 1 steps, delay 10 steps, check yes
  max neighbors/atom: 2000, page size: 100000
  master list distance cutoff = 8.4511323
  ghost atom cutoff = 8.4511323
  binsize = 4.2255661, bins = 10 10 10
  2 neighbor lists, perpetual/occasional/extra = 1 1 0
  (1) command delete_atoms, occasional
      attributes: full, newton on
      pair build: full/bin/atomonly
      stencil: full/bin/3d
      bin: standard
  (2) pair eam/alloy, perpetual
      attributes: half, newton on
      pair build: half/bin/atomonly/newton
      stencil: half/bin/3d
      bin: standard
Deleted 43 atoms, new total = 459
System init for write_data ...
Neighbor list info ...
  update every 1 steps, delay 10 steps, check yes
  max neighbors/atom: 2000, page size: 100000
  master list distance cutoff = 8.4511323
  ghost atom cutoff = 8.4511323
  binsize = 4.2255661, bins = 10 10 10
  1 neighbor lists, perpetual/occasional/extra = 1 0 0
  (1) pair eam/alloy, perpetual
      attributes: half, newton on
      pair build: half/bin/atomonly/newton
      stencil: half/bin/3d
      bin: standard
WARNING: No fixes defined, atoms won't move (../verlet.cpp:55)
Setting up Verlet run ...
  Unit style    : metal
  Current step  : 0
  Time step     : 0.001
Per MPI rank memory allocation (min/avg/max) = 3.323 | 3.323 | 3.323 Mbytes
Step Atoms Temp Press PotEng KinEng TotEng Enthalpy E_vdwl E_coul E_long E_pair Volume Density Lx Ly Lz Fmax v_ecoh 
       0      459            0   -13274.375   -1697.7873            0   -1697.7873    -2228.041   -1697.7873            0            0   -1697.7873        64000    2.3436421           40           40           40    2.0602953   -3.6988831 
Loop time of 8.43e-07 on 1 procs for 0 steps with 459 atoms

118.6% CPU use with 1 MPI tasks x 1 OpenMP threads

MPI task timing breakdown:
Section |  min time  |  avg time  |  max time  |%varavg| %total
---------------------------------------------------------------
Pair    | 0          | 0          | 0          |   0.0 |  0.00
Neigh   | 0          | 0          | 0          |   0.0 |  0.00
Comm    | 0          | 0          | 0          |   0.0 |  0.00
Output  | 0          | 0          | 0          |   0.0 |  0.00
Modify  | 0          | 0          | 0          |   0.0 |  0.00
Other   |            | 8.43e-07   |            |       |100.00

Nlocal:        459.000 ave         459 max         459 min
Histogram: 1 0 0 0 0 0 0 0 0 0
Nghost:        6.00000 ave           6 max           6 min
Histogram: 1 0 0 0 0 0 0 0 0 0
Neighs:        20183.0 ave       20183 max       20183 min
Histogram: 1 0 0 0 0 0 0 0 0 0

Total # of neighbors = 20183
Ave neighs/atom = 43.971678
Neighbor list builds = 0
Dangerous builds = 0

### Generated CS BNP from ./MNP/Au25SP.lmp and ./MNP/Pt10SP.lmp ###
DONE!
------------------------------------------------------------------------------------------------------------------------------

Total wall time: 0:00:00
LAMMPS (29 Sep 2021)
  using 1 OpenMP thread(s) per MPI task
  using 1 OpenMP thread(s) per MPI task
Reading data file ...
  orthogonal box = (0.0000000 0.0000000 0.0000000) to (40.000000 40.000000 40.000000)
  1 by 1 by 1 MPI processor grid
  reading atoms ...
  459 atoms
  read_data CPU = 0.002 seconds
Reading data file ...
  orthogonal box = (0.0000000 0.0000000 0.0000000) to (40.000000 40.000000 40.000000)
  1 by 1 by 1 MPI processor grid
  reading atoms ...
  135 atoms
  read_data CPU = 0.001 seconds
System init for delete_atoms ...
Neighbor list info ...
  update every 1 steps, delay 10 steps, check yes
  max neighbors/atom: 2000, page size: 100000
  master list distance cutoff = 8.4511323
  ghost atom cutoff = 8.4511323
  binsize = 4.2255661, bins = 10 10 10
  2 neighbor lists, perpetual/occasional/extra = 1 1 0
  (1) command delete_atoms, occasional
      attributes: full, newton on
      pair build: full/bin/atomonly
      stencil: full/bin/3d
      bin: standard
  (2) pair eam/alloy, perpetual
      attributes: half, newton on
      pair build: half/bin/atomonly/newton
      stencil: half/bin/3d
      bin: standard
Deleted 135 atoms, new total = 459
System init for write_data ...
Neighbor list info ...
  update every 1 steps, delay 10 steps, check yes
  max neighbors/atom: 2000, page size: 100000
  master list distance cutoff = 8.4511323
  ghost atom cutoff = 8.4511323
  binsize = 4.2255661, bins = 10 10 10
  1 neighbor lists, perpetual/occasional/extra = 1 0 0
  (1) pair eam/alloy, perpetual
      attributes: half, newton on
      pair build: half/bin/atomonly/newton
      stencil: half/bin/3d
      bin: standard
WARNING: No fixes defined, atoms won't move (../verlet.cpp:55)
Setting up Verlet run ...
  Unit style    : metal
  Current step  : 0
  Time step     : 0.001
Per MPI rank memory allocation (min/avg/max) = 3.323 | 3.323 | 3.323 Mbytes
Step Atoms Temp Press PotEng KinEng TotEng Enthalpy E_vdwl E_coul E_long E_pair Volume Density Lx Ly Lz Fmax v_ecoh 
       0      459            0    -16402.14   -1845.6162            0   -1845.6162   -2500.8105   -1845.6162            0            0   -1845.6162        64000    2.3391306           40           40           40    2.0499418   -4.0209503 
Loop time of 1.072e-06 on 1 procs for 0 steps with 459 atoms

0.0% CPU use with 1 MPI tasks x 1 OpenMP threads

MPI task timing breakdown:
Section |  min time  |  avg time  |  max time  |%varavg| %total
---------------------------------------------------------------
Pair    | 0          | 0          | 0          |   0.0 |  0.00
Neigh   | 0          | 0          | 0          |   0.0 |  0.00
Comm    | 0          | 0          | 0          |   0.0 |  0.00
Output  | 0          | 0          | 0          |   0.0 |  0.00
Modify  | 0          | 0          | 0          |   0.0 |  0.00
Other   |            | 1.072e-06  |            |       |100.00

Nlocal:        459.000 ave         459 max         459 min
Histogram: 1 0 0 0 0 0 0 0 0 0
Nghost:        6.00000 ave           6 max           6 min
Histogram: 1 0 0 0 0 0 0 0 0 0
Neighs:        20843.0 ave       20843 max       20843 min
Histogram: 1 0 0 0 0 0 0 0 0 0

Total # of neighbors = 20843
Ave neighs/atom = 45.409586
Neighbor list builds = 0
Dangerous builds = 0

### Generated CS BNP from ./MNP/Au25SP.lmp and ./MNP/Pt15SP.lmp ###
DONE!
------------------------------------------------------------------------------------------------------------------------------

Total wall time: 0:00:00
LAMMPS (29 Sep 2021)
  using 1 OpenMP thread(s) per MPI task
  using 1 OpenMP thread(s) per MPI task
Reading data file ...
  orthogonal box = (0.0000000 0.0000000 0.0000000) to (40.000000 40.000000 40.000000)
  1 by 1 by 1 MPI processor grid
  reading atoms ...
  459 atoms
  read_data CPU = 0.002 seconds
Reading data file ...
  orthogonal box = (0.0000000 0.0000000 0.0000000) to (40.000000 40.000000 40.000000)
  1 by 1 by 1 MPI processor grid
  reading atoms ...
  321 atoms
  read_data CPU = 0.001 seconds
System init for delete_atoms ...
Neighbor list info ...
  update every 1 steps, delay 10 steps, check yes
  max neighbors/atom: 2000, page size: 100000
  master list distance cutoff = 8.4511323
  ghost atom cutoff = 8.4511323
  binsize = 4.2255661, bins = 10 10 10
  2 neighbor lists, perpetual/occasional/extra = 1 1 0
  (1) command delete_atoms, occasional
      attributes: full, newton on
      pair build: full/bin/atomonly
      stencil: full/bin/3d
      bin: standard
  (2) pair eam/alloy, perpetual
      attributes: half, newton on
      pair build: half/bin/atomonly/newton
      stencil: half/bin/3d
      bin: standard
Deleted 321 atoms, new total = 459
System init for write_data ...
Neighbor list info ...
  update every 1 steps, delay 10 steps, check yes
  max neighbors/atom: 2000, page size: 100000
  master list distance cutoff = 8.4511323
  ghost atom cutoff = 8.4511323
  binsize = 4.2255661, bins = 10 10 10
  1 neighbor lists, perpetual/occasional/extra = 1 0 0
  (1) pair eam/alloy, perpetual
      attributes: half, newton on
      pair build: half/bin/atomonly/newton
      stencil: half/bin/3d
      bin: standard
WARNING: No fixes defined, atoms won't move (../verlet.cpp:55)
Setting up Verlet run ...
  Unit style    : metal
  Current step  : 0
  Time step     : 0.001
Per MPI rank memory allocation (min/avg/max) = 3.323 | 3.323 | 3.323 Mbytes
Step Atoms Temp Press PotEng KinEng TotEng Enthalpy E_vdwl E_coul E_long E_pair Volume Density Lx Ly Lz Fmax v_ecoh 
       0      459            0   -18635.095   -2135.2243            0   -2135.2243   -2879.6155   -2135.2243            0            0   -2135.2243        64000    2.3300096           40           40           40    2.4104243   -4.6519049 
Loop time of 9.18e-07 on 1 procs for 0 steps with 459 atoms

108.9% CPU use with 1 MPI tasks x 1 OpenMP threads

MPI task timing breakdown:
Section |  min time  |  avg time  |  max time  |%varavg| %total
---------------------------------------------------------------
Pair    | 0          | 0          | 0          |   0.0 |  0.00
Neigh   | 0          | 0          | 0          |   0.0 |  0.00
Comm    | 0          | 0          | 0          |   0.0 |  0.00
Output  | 0          | 0          | 0          |   0.0 |  0.00
Modify  | 0          | 0          | 0          |   0.0 |  0.00
Other   |            | 9.18e-07   |            |       |100.00

Nlocal:        459.000 ave         459 max         459 min
Histogram: 1 0 0 0 0 0 0 0 0 0
Nghost:        6.00000 ave           6 max           6 min
Histogram: 1 0 0 0 0 0 0 0 0 0
Neighs:        22655.0 ave       22655 max       22655 min
Histogram: 1 0 0 0 0 0 0 0 0 0

Total # of neighbors = 22655
Ave neighs/atom = 49.357298
Neighbor list builds = 0
Dangerous builds = 0

### Generated CS BNP from ./MNP/Au25SP.lmp and ./MNP/Pt20SP.lmp ###
DONE!
------------------------------------------------------------------------------------------------------------------------------

Total wall time: 0:00:00
LAMMPS (29 Sep 2021)
  using 1 OpenMP thread(s) per MPI task
  using 1 OpenMP thread(s) per MPI task
Reading data file ...
  orthogonal box = (0.0000000 0.0000000 0.0000000) to (40.000000 40.000000 40.000000)
  1 by 1 by 1 MPI processor grid
  reading atoms ...
  791 atoms
  read_data CPU = 0.003 seconds
Reading data file ...
  orthogonal box = (0.0000000 0.0000000 0.0000000) to (40.000000 40.000000 40.000000)
  1 by 1 by 1 MPI processor grid
  reading atoms ...
  43 atoms
  read_data CPU = 0.001 seconds
System init for delete_atoms ...
Neighbor list info ...
  update every 1 steps, delay 10 steps, check yes
  max neighbors/atom: 2000, page size: 100000
  master list distance cutoff = 8.4511323
  ghost atom cutoff = 8.4511323
  binsize = 4.2255661, bins = 10 10 10
  2 neighbor lists, perpetual/occasional/extra = 1 1 0
  (1) command delete_atoms, occasional
      attributes: full, newton on
      pair build: full/bin/atomonly
      stencil: full/bin/3d
      bin: standard
  (2) pair eam/alloy, perpetual
      attributes: half, newton on
      pair build: half/bin/atomonly/newton
      stencil: half/bin/3d
      bin: standard
Deleted 43 atoms, new total = 791
System init for write_data ...
Neighbor list info ...
  update every 1 steps, delay 10 steps, check yes
  max neighbors/atom: 2000, page size: 100000
  master list distance cutoff = 8.4511323
  ghost atom cutoff = 8.4511323
  binsize = 4.2255661, bins = 10 10 10
  1 neighbor lists, perpetual/occasional/extra = 1 0 0
  (1) pair eam/alloy, perpetual
      attributes: half, newton on
      pair build: half/bin/atomonly/newton
      stencil: half/bin/3d
      bin: standard
WARNING: No fixes defined, atoms won't move (../verlet.cpp:55)
Setting up Verlet run ...
  Unit style    : metal
  Current step  : 0
  Time step     : 0.001
Per MPI rank memory allocation (min/avg/max) = 3.326 | 3.326 | 3.326 Mbytes
Step Atoms Temp Press PotEng KinEng TotEng Enthalpy E_vdwl E_coul E_long E_pair Volume Density Lx Ly Lz Fmax v_ecoh 
       0      791            0   -18857.008   -2939.6266            0   -2939.6266   -3692.8823   -2939.6266            0            0   -2939.6266        64000    4.0403507           40           40           40    1.4555662   -3.7163421 
Loop time of 7.56e-07 on 1 procs for 0 steps with 791 atoms

0.0% CPU use with 1 MPI tasks x 1 OpenMP threads

MPI task timing breakdown:
Section |  min time  |  avg time  |  max time  |%varavg| %total
---------------------------------------------------------------
Pair    | 0          | 0          | 0          |   0.0 |  0.00
Neigh   | 0          | 0          | 0          |   0.0 |  0.00
Comm    | 0          | 0          | 0          |   0.0 |  0.00
Output  | 0          | 0          | 0          |   0.0 |  0.00
Modify  | 0          | 0          | 0          |   0.0 |  0.00
Other   |            | 7.56e-07   |            |       |100.00

Nlocal:        791.000 ave         791 max         791 min
Histogram: 1 0 0 0 0 0 0 0 0 0
Nghost:        174.000 ave         174 max         174 min
Histogram: 1 0 0 0 0 0 0 0 0 0
Neighs:        37999.0 ave       37999 max       37999 min
Histogram: 1 0 0 0 0 0 0 0 0 0

Total # of neighbors = 37999
Ave neighs/atom = 48.039191
Neighbor list builds = 0
Dangerous builds = 0

### Generated CS BNP from ./MNP/Au30SP.lmp and ./MNP/Pt10SP.lmp ###
DONE!
------------------------------------------------------------------------------------------------------------------------------

Total wall time: 0:00:00
LAMMPS (29 Sep 2021)
  using 1 OpenMP thread(s) per MPI task
  using 1 OpenMP thread(s) per MPI task
Reading data file ...
  orthogonal box = (0.0000000 0.0000000 0.0000000) to (40.000000 40.000000 40.000000)
  1 by 1 by 1 MPI processor grid
  reading atoms ...
  791 atoms
  read_data CPU = 0.002 seconds
Reading data file ...
  orthogonal box = (0.0000000 0.0000000 0.0000000) to (40.000000 40.000000 40.000000)
  1 by 1 by 1 MPI processor grid
  reading atoms ...
  135 atoms
  read_data CPU = 0.001 seconds
System init for delete_atoms ...
Neighbor list info ...
  update every 1 steps, delay 10 steps, check yes
  max neighbors/atom: 2000, page size: 100000
  master list distance cutoff = 8.4511323
  ghost atom cutoff = 8.4511323
  binsize = 4.2255661, bins = 10 10 10
  2 neighbor lists, perpetual/occasional/extra = 1 1 0
  (1) command delete_atoms, occasional
      attributes: full, newton on
      pair build: full/bin/atomonly
      stencil: full/bin/3d
      bin: standard
  (2) pair eam/alloy, perpetual
      attributes: half, newton on
      pair build: half/bin/atomonly/newton
      stencil: half/bin/3d
      bin: standard
Deleted 135 atoms, new total = 791
System init for write_data ...
Neighbor list info ...
  update every 1 steps, delay 10 steps, check yes
  max neighbors/atom: 2000, page size: 100000
  master list distance cutoff = 8.4511323
  ghost atom cutoff = 8.4511323
  binsize = 4.2255661, bins = 10 10 10
  1 neighbor lists, perpetual/occasional/extra = 1 0 0
  (1) pair eam/alloy, perpetual
      attributes: half, newton on
      pair build: half/bin/atomonly/newton
      stencil: half/bin/3d
      bin: standard
WARNING: No fixes defined, atoms won't move (../verlet.cpp:55)
Setting up Verlet run ...
  Unit style    : metal
  Current step  : 0
  Time step     : 0.001
Per MPI rank memory allocation (min/avg/max) = 3.326 | 3.326 | 3.326 Mbytes
Step Atoms Temp Press PotEng KinEng TotEng Enthalpy E_vdwl E_coul E_long E_pair Volume Density Lx Ly Lz Fmax v_ecoh 
       0      791            0   -22043.139   -3087.3985            0   -3087.3985   -3967.9262   -3087.3985            0            0   -3087.3985        64000    4.0358392           40           40           40    1.4563152   -3.9031586 
Loop time of 8.45e-07 on 1 procs for 0 steps with 791 atoms

118.3% CPU use with 1 MPI tasks x 1 OpenMP threads

MPI task timing breakdown:
Section |  min time  |  avg time  |  max time  |%varavg| %total
---------------------------------------------------------------
Pair    | 0          | 0          | 0          |   0.0 |  0.00
Neigh   | 0          | 0          | 0          |   0.0 |  0.00
Comm    | 0          | 0          | 0          |   0.0 |  0.00
Output  | 0          | 0          | 0          |   0.0 |  0.00
Modify  | 0          | 0          | 0          |   0.0 |  0.00
Other   |            | 8.45e-07   |            |       |100.00

Nlocal:        791.000 ave         791 max         791 min
Histogram: 1 0 0 0 0 0 0 0 0 0
Nghost:        174.000 ave         174 max         174 min
Histogram: 1 0 0 0 0 0 0 0 0 0
Neighs:        38659.0 ave       38659 max       38659 min
Histogram: 1 0 0 0 0 0 0 0 0 0

Total # of neighbors = 38659
Ave neighs/atom = 48.873578
Neighbor list builds = 0
Dangerous builds = 0

### Generated CS BNP from ./MNP/Au30SP.lmp and ./MNP/Pt15SP.lmp ###
DONE!
------------------------------------------------------------------------------------------------------------------------------

Total wall time: 0:00:00
LAMMPS (29 Sep 2021)
  using 1 OpenMP thread(s) per MPI task
  using 1 OpenMP thread(s) per MPI task
Reading data file ...
  orthogonal box = (0.0000000 0.0000000 0.0000000) to (40.000000 40.000000 40.000000)
  1 by 1 by 1 MPI processor grid
  reading atoms ...
  791 atoms
  read_data CPU = 0.002 seconds
Reading data file ...
  orthogonal box = (0.0000000 0.0000000 0.0000000) to (40.000000 40.000000 40.000000)
  1 by 1 by 1 MPI processor grid
  reading atoms ...
  321 atoms
  read_data CPU = 0.001 seconds
System init for delete_atoms ...
Neighbor list info ...
  update every 1 steps, delay 10 steps, check yes
  max neighbors/atom: 2000, page size: 100000
  master list distance cutoff = 8.4511323
  ghost atom cutoff = 8.4511323
  binsize = 4.2255661, bins = 10 10 10
  2 neighbor lists, perpetual/occasional/extra = 1 1 0
  (1) command delete_atoms, occasional
      attributes: full, newton on
      pair build: full/bin/atomonly
      stencil: full/bin/3d
      bin: standard
  (2) pair eam/alloy, perpetual
      attributes: half, newton on
      pair build: half/bin/atomonly/newton
      stencil: half/bin/3d
      bin: standard
Deleted 321 atoms, new total = 791
System init for write_data ...
Neighbor list info ...
  update every 1 steps, delay 10 steps, check yes
  max neighbors/atom: 2000, page size: 100000
  master list distance cutoff = 8.4511323
  ghost atom cutoff = 8.4511323
  binsize = 4.2255661, bins = 10 10 10
  1 neighbor lists, perpetual/occasional/extra = 1 0 0
  (1) pair eam/alloy, perpetual
      attributes: half, newton on
      pair build: half/bin/atomonly/newton
      stencil: half/bin/3d
      bin: standard
WARNING: No fixes defined, atoms won't move (../verlet.cpp:55)
Setting up Verlet run ...
  Unit style    : metal
  Current step  : 0
  Time step     : 0.001
Per MPI rank memory allocation (min/avg/max) = 3.326 | 3.326 | 3.326 Mbytes
Step Atoms Temp Press PotEng KinEng TotEng Enthalpy E_vdwl E_coul E_long E_pair Volume Density Lx Ly Lz Fmax v_ecoh 
       0      791            0    -27644.86   -3383.7663            0   -3383.7663   -4488.0585   -3383.7663            0            0   -3383.7663        64000    4.0267181           40           40           40    1.4398967   -4.2778335 
Loop time of 8.91e-07 on 1 procs for 0 steps with 791 atoms

0.0% CPU use with 1 MPI tasks x 1 OpenMP threads

MPI task timing breakdown:
Section |  min time  |  avg time  |  max time  |%varavg| %total
---------------------------------------------------------------
Pair    | 0          | 0          | 0          |   0.0 |  0.00
Neigh   | 0          | 0          | 0          |   0.0 |  0.00
Comm    | 0          | 0          | 0          |   0.0 |  0.00
Output  | 0          | 0          | 0          |   0.0 |  0.00
Modify  | 0          | 0          | 0          |   0.0 |  0.00
Other   |            | 8.91e-07   |            |       |100.00

Nlocal:        791.000 ave         791 max         791 min
Histogram: 1 0 0 0 0 0 0 0 0 0
Nghost:        174.000 ave         174 max         174 min
Histogram: 1 0 0 0 0 0 0 0 0 0
Neighs:        40471.0 ave       40471 max       40471 min
Histogram: 1 0 0 0 0 0 0 0 0 0

Total # of neighbors = 40471
Ave neighs/atom = 51.164349
Neighbor list builds = 0
Dangerous builds = 0

### Generated CS BNP from ./MNP/Au30SP.lmp and ./MNP/Pt20SP.lmp ###
DONE!
------------------------------------------------------------------------------------------------------------------------------

Total wall time: 0:00:00
LAMMPS (29 Sep 2021)
  using 1 OpenMP thread(s) per MPI task
  using 1 OpenMP thread(s) per MPI task
Reading data file ...
  orthogonal box = (0.0000000 0.0000000 0.0000000) to (40.000000 40.000000 40.000000)
  1 by 1 by 1 MPI processor grid
  reading atoms ...
  791 atoms
  read_data CPU = 0.002 seconds
Reading data file ...
  orthogonal box = (0.0000000 0.0000000 0.0000000) to (40.000000 40.000000 40.000000)
  1 by 1 by 1 MPI processor grid
  reading atoms ...
  555 atoms
  read_data CPU = 0.001 seconds
System init for delete_atoms ...
Neighbor list info ...
  update every 1 steps, delay 10 steps, check yes
  max neighbors/atom: 2000, page size: 100000
  master list distance cutoff = 8.4511323
  ghost atom cutoff = 8.4511323
  binsize = 4.2255661, bins = 10 10 10
  2 neighbor lists, perpetual/occasional/extra = 1 1 0
  (1) command delete_atoms, occasional
      attributes: full, newton on
      pair build: full/bin/atomonly
      stencil: full/bin/3d
      bin: standard
  (2) pair eam/alloy, perpetual
      attributes: half, newton on
      pair build: half/bin/atomonly/newton
      stencil: half/bin/3d
      bin: standard
Deleted 555 atoms, new total = 791
System init for write_data ...
Neighbor list info ...
  update every 1 steps, delay 10 steps, check yes
  max neighbors/atom: 2000, page size: 100000
  master list distance cutoff = 8.4511323
  ghost atom cutoff = 8.4511323
  binsize = 4.2255661, bins = 10 10 10
  1 neighbor lists, perpetual/occasional/extra = 1 0 0
  (1) pair eam/alloy, perpetual
      attributes: half, newton on
      pair build: half/bin/atomonly/newton
      stencil: half/bin/3d
      bin: standard
WARNING: No fixes defined, atoms won't move (../verlet.cpp:55)
Setting up Verlet run ...
  Unit style    : metal
  Current step  : 0
  Time step     : 0.001
Per MPI rank memory allocation (min/avg/max) = 3.326 | 3.326 | 3.326 Mbytes
Step Atoms Temp Press PotEng KinEng TotEng Enthalpy E_vdwl E_coul E_long E_pair Volume Density Lx Ly Lz Fmax v_ecoh 
       0      791            0   -29405.145   -3746.6992            0   -3746.6992   -4921.3072   -3746.6992            0            0   -3746.6992        64000    4.0152433           40           40           40    1.8748176   -4.7366614 
Loop time of 8.85e-07 on 1 procs for 0 steps with 791 atoms

0.0% CPU use with 1 MPI tasks x 1 OpenMP threads

MPI task timing breakdown:
Section |  min time  |  avg time  |  max time  |%varavg| %total
---------------------------------------------------------------
Pair    | 0          | 0          | 0          |   0.0 |  0.00
Neigh   | 0          | 0          | 0          |   0.0 |  0.00
Comm    | 0          | 0          | 0          |   0.0 |  0.00
Output  | 0          | 0          | 0          |   0.0 |  0.00
Modify  | 0          | 0          | 0          |   0.0 |  0.00
Other   |            | 8.85e-07   |            |       |100.00

Nlocal:        791.000 ave         791 max         791 min
Histogram: 1 0 0 0 0 0 0 0 0 0
Nghost:        174.000 ave         174 max         174 min
Histogram: 1 0 0 0 0 0 0 0 0 0
Neighs:        43123.0 ave       43123 max       43123 min
Histogram: 1 0 0 0 0 0 0 0 0 0

Total # of neighbors = 43123
Ave neighs/atom = 54.517067
Neighbor list builds = 0
Dangerous builds = 0

### Generated CS BNP from ./MNP/Au30SP.lmp and ./MNP/Pt25SP.lmp ###
DONE!
------------------------------------------------------------------------------------------------------------------------------

Total wall time: 0:00:00
LAMMPS (29 Sep 2021)
  using 1 OpenMP thread(s) per MPI task
  using 1 OpenMP thread(s) per MPI task
Reading data file ...
  orthogonal box = (0.0000000 0.0000000 0.0000000) to (40.000000 40.000000 40.000000)
  1 by 1 by 1 MPI processor grid
  reading atoms ...
  135 atoms
  read_data CPU = 0.002 seconds
Reading data file ...
  orthogonal box = (0.0000000 0.0000000 0.0000000) to (40.000000 40.000000 40.000000)
  1 by 1 by 1 MPI processor grid
  reading atoms ...
  19 atoms
  read_data CPU = 0.001 seconds
System init for delete_atoms ...
Neighbor list info ...
  update every 1 steps, delay 10 steps, check yes
  max neighbors/atom: 2000, page size: 100000
  master list distance cutoff = 8.4511323
  ghost atom cutoff = 8.4511323
  binsize = 4.2255661, bins = 10 10 10
  2 neighbor lists, perpetual/occasional/extra = 1 1 0
  (1) command delete_atoms, occasional
      attributes: full, newton on
      pair build: full/bin/atomonly
      stencil: full/bin/3d
      bin: standard
  (2) pair eam/alloy, perpetual
      attributes: half, newton on
      pair build: half/bin/atomonly/newton
      stencil: half/bin/3d
      bin: standard
Deleted 19 atoms, new total = 135
System init for write_data ...
Neighbor list info ...
  update every 1 steps, delay 10 steps, check yes
  max neighbors/atom: 2000, page size: 100000
  master list distance cutoff = 8.4511323
  ghost atom cutoff = 8.4511323
  binsize = 4.2255661, bins = 10 10 10
  1 neighbor lists, perpetual/occasional/extra = 1 0 0
  (1) pair eam/alloy, perpetual
      attributes: half, newton on
      pair build: half/bin/atomonly/newton
      stencil: half/bin/3d
      bin: standard
WARNING: No fixes defined, atoms won't move (../verlet.cpp:55)
Setting up Verlet run ...
  Unit style    : metal
  Current step  : 0
  Time step     : 0.001
Per MPI rank memory allocation (min/avg/max) = 3.320 | 3.320 | 3.320 Mbytes
Step Atoms Temp Press PotEng KinEng TotEng Enthalpy E_vdwl E_coul E_long E_pair Volume Density Lx Ly Lz Fmax v_ecoh 
       0      135            0   -1647.3513   -435.25603            0   -435.25603   -501.06057   -435.25603            0            0   -435.25603        64000   0.41739592           40           40           40   0.97830743   -3.2241187 
Loop time of 1.216e-06 on 1 procs for 0 steps with 135 atoms

0.0% CPU use with 1 MPI tasks x 1 OpenMP threads

MPI task timing breakdown:
Section |  min time  |  avg time  |  max time  |%varavg| %total
---------------------------------------------------------------
Pair    | 0          | 0          | 0          |   0.0 |  0.00
Neigh   | 0          | 0          | 0          |   0.0 |  0.00
Comm    | 0          | 0          | 0          |   0.0 |  0.00
Output  | 0          | 0          | 0          |   0.0 |  0.00
Modify  | 0          | 0          | 0          |   0.0 |  0.00
Other   |            | 1.216e-06  |            |       |100.00

Nlocal:        135.000 ave         135 max         135 min
Histogram: 1 0 0 0 0 0 0 0 0 0
Nghost:         0.00000 ave           0 max           0 min
Histogram: 1 0 0 0 0 0 0 0 0 0
Neighs:        5039.00 ave        5039 max        5039 min
Histogram: 1 0 0 0 0 0 0 0 0 0

Total # of neighbors = 5039
Ave neighs/atom = 37.325926
Neighbor list builds = 0
Dangerous builds = 0

### Generated CS BNP from ./MNP/Pd15SP.lmp and ./MNP/Au10SP.lmp ###
DONE!
------------------------------------------------------------------------------------------------------------------------------

Total wall time: 0:00:00
LAMMPS (29 Sep 2021)
  using 1 OpenMP thread(s) per MPI task
  using 1 OpenMP thread(s) per MPI task
Reading data file ...
  orthogonal box = (0.0000000 0.0000000 0.0000000) to (40.000000 40.000000 40.000000)
  1 by 1 by 1 MPI processor grid
  reading atoms ...
  321 atoms
  read_data CPU = 0.002 seconds
Reading data file ...
  orthogonal box = (0.0000000 0.0000000 0.0000000) to (40.000000 40.000000 40.000000)
  1 by 1 by 1 MPI processor grid
  reading atoms ...
  19 atoms
  read_data CPU = 0.001 seconds
System init for delete_atoms ...
Neighbor list info ...
  update every 1 steps, delay 10 steps, check yes
  max neighbors/atom: 2000, page size: 100000
  master list distance cutoff = 8.4511323
  ghost atom cutoff = 8.4511323
  binsize = 4.2255661, bins = 10 10 10
  2 neighbor lists, perpetual/occasional/extra = 1 1 0
  (1) command delete_atoms, occasional
      attributes: full, newton on
      pair build: full/bin/atomonly
      stencil: full/bin/3d
      bin: standard
  (2) pair eam/alloy, perpetual
      attributes: half, newton on
      pair build: half/bin/atomonly/newton
      stencil: half/bin/3d
      bin: standard
Deleted 19 atoms, new total = 321
System init for write_data ...
Neighbor list info ...
  update every 1 steps, delay 10 steps, check yes
  max neighbors/atom: 2000, page size: 100000
  master list distance cutoff = 8.4511323
  ghost atom cutoff = 8.4511323
  binsize = 4.2255661, bins = 10 10 10
  1 neighbor lists, perpetual/occasional/extra = 1 0 0
  (1) pair eam/alloy, perpetual
      attributes: half, newton on
      pair build: half/bin/atomonly/newton
      stencil: half/bin/3d
      bin: standard
WARNING: No fixes defined, atoms won't move (../verlet.cpp:55)
Setting up Verlet run ...
  Unit style    : metal
  Current step  : 0
  Time step     : 0.001
Per MPI rank memory allocation (min/avg/max) = 3.322 | 3.322 | 3.322 Mbytes
Step Atoms Temp Press PotEng KinEng TotEng Enthalpy E_vdwl E_coul E_long E_pair Volume Density Lx Ly Lz Fmax v_ecoh 
       0      321            0   -4351.8937   -1087.3619            0   -1087.3619   -1261.2012   -1087.3619            0            0   -1087.3619        64000   0.93097258           40           40           40    1.4696604   -3.3874202 
Loop time of 8.65e-07 on 1 procs for 0 steps with 321 atoms

231.2% CPU use with 1 MPI tasks x 1 OpenMP threads

MPI task timing breakdown:
Section |  min time  |  avg time  |  max time  |%varavg| %total
---------------------------------------------------------------
Pair    | 0          | 0          | 0          |   0.0 |  0.00
Neigh   | 0          | 0          | 0          |   0.0 |  0.00
Comm    | 0          | 0          | 0          |   0.0 |  0.00
Output  | 0          | 0          | 0          |   0.0 |  0.00
Modify  | 0          | 0          | 0          |   0.0 |  0.00
Other   |            | 8.65e-07   |            |       |100.00

Nlocal:        321.000 ave         321 max         321 min
Histogram: 1 0 0 0 0 0 0 0 0 0
Nghost:         0.00000 ave           0 max           0 min
Histogram: 1 0 0 0 0 0 0 0 0 0
Neighs:        15683.0 ave       15683 max       15683 min
Histogram: 1 0 0 0 0 0 0 0 0 0

Total # of neighbors = 15683
Ave neighs/atom = 48.856698
Neighbor list builds = 0
Dangerous builds = 0

### Generated CS BNP from ./MNP/Pd20SP.lmp and ./MNP/Au10SP.lmp ###
DONE!
------------------------------------------------------------------------------------------------------------------------------

Total wall time: 0:00:00
LAMMPS (29 Sep 2021)
  using 1 OpenMP thread(s) per MPI task
  using 1 OpenMP thread(s) per MPI task
Reading data file ...
  orthogonal box = (0.0000000 0.0000000 0.0000000) to (40.000000 40.000000 40.000000)
  1 by 1 by 1 MPI processor grid
  reading atoms ...
  321 atoms
  read_data CPU = 0.003 seconds
Reading data file ...
  orthogonal box = (0.0000000 0.0000000 0.0000000) to (40.000000 40.000000 40.000000)
  1 by 1 by 1 MPI processor grid
  reading atoms ...
  87 atoms
  read_data CPU = 0.001 seconds
System init for delete_atoms ...
Neighbor list info ...
  update every 1 steps, delay 10 steps, check yes
  max neighbors/atom: 2000, page size: 100000
  master list distance cutoff = 8.4511323
  ghost atom cutoff = 8.4511323
  binsize = 4.2255661, bins = 10 10 10
  2 neighbor lists, perpetual/occasional/extra = 1 1 0
  (1) command delete_atoms, occasional
      attributes: full, newton on
      pair build: full/bin/atomonly
      stencil: full/bin/3d
      bin: standard
  (2) pair eam/alloy, perpetual
      attributes: half, newton on
      pair build: half/bin/atomonly/newton
      stencil: half/bin/3d
      bin: standard
Deleted 87 atoms, new total = 321
System init for write_data ...
Neighbor list info ...
  update every 1 steps, delay 10 steps, check yes
  max neighbors/atom: 2000, page size: 100000
  master list distance cutoff = 8.4511323
  ghost atom cutoff = 8.4511323
  binsize = 4.2255661, bins = 10 10 10
  1 neighbor lists, perpetual/occasional/extra = 1 0 0
  (1) pair eam/alloy, perpetual
      attributes: half, newton on
      pair build: half/bin/atomonly/newton
      stencil: half/bin/3d
      bin: standard
WARNING: No fixes defined, atoms won't move (../verlet.cpp:55)
Setting up Verlet run ...
  Unit style    : metal
  Current step  : 0
  Time step     : 0.001
Per MPI rank memory allocation (min/avg/max) = 3.322 | 3.322 | 3.322 Mbytes
Step Atoms Temp Press PotEng KinEng TotEng Enthalpy E_vdwl E_coul E_long E_pair Volume Density Lx Ly Lz Fmax v_ecoh 
       0      321            0    1979.4746   -1074.2898            0   -1074.2898    -995.2184   -1074.2898            0            0   -1074.2898        64000     1.090732           40           40           40    2.0681628   -3.3466973 
Loop time of 8.72e-07 on 1 procs for 0 steps with 321 atoms

114.7% CPU use with 1 MPI tasks x 1 OpenMP threads

MPI task timing breakdown:
Section |  min time  |  avg time  |  max time  |%varavg| %total
---------------------------------------------------------------
Pair    | 0          | 0          | 0          |   0.0 |  0.00
Neigh   | 0          | 0          | 0          |   0.0 |  0.00
Comm    | 0          | 0          | 0          |   0.0 |  0.00
Output  | 0          | 0          | 0          |   0.0 |  0.00
Modify  | 0          | 0          | 0          |   0.0 |  0.00
Other   |            | 8.72e-07   |            |       |100.00

Nlocal:        321.000 ave         321 max         321 min
Histogram: 1 0 0 0 0 0 0 0 0 0
Nghost:         0.00000 ave           0 max           0 min
Histogram: 1 0 0 0 0 0 0 0 0 0
Neighs:        15383.0 ave       15383 max       15383 min
Histogram: 1 0 0 0 0 0 0 0 0 0

Total # of neighbors = 15383
Ave neighs/atom = 47.922118
Neighbor list builds = 0
[...]
Neighbor list info ...
  update every 1 steps, delay 10 steps, check yes
  max neighbors/atom: 2000, page size: 100000
  master list distance cutoff = 8.4511323
  ghost atom cutoff = 8.4511323
  binsize = 4.2255661, bins = 10 10 10
  1 neighbor lists, perpetual/occasional/extra = 1 0 0
  (1) pair eam/alloy, perpetual
      attributes: half, newton on
      pair build: half/bin/atomonly/newton
      stencil: half/bin/3d
      bin: standard
WARNING: No fixes defined, atoms won't move (../verlet.cpp:55)
Setting up Verlet run ...
  Unit style    : metal
  Current step  : 0
  Time step     : 0.001
Per MPI rank memory allocation (min/avg/max) = 3.326 | 3.326 | 3.326 Mbytes
Step Atoms Temp Press PotEng KinEng TotEng Enthalpy E_vdwl E_coul E_long E_pair Volume Density Lx Ly Lz Fmax v_ecoh 
       0      791            0   -26024.865   -3015.2095            0   -3015.2095     -4054.79   -3015.2095            0            0   -3015.2095        64000    2.8169315           40           40           40    2.0396573   -3.8118957 
Loop time of 8.44e-07 on 1 procs for 0 steps with 791 atoms

118.5% CPU use with 1 MPI tasks x 1 OpenMP threads

MPI task timing breakdown:
Section |  min time  |  avg time  |  max time  |%varavg| %total
---------------------------------------------------------------
Pair    | 0          | 0          | 0          |   0.0 |  0.00
Neigh   | 0          | 0          | 0          |   0.0 |  0.00
Comm    | 0          | 0          | 0          |   0.0 |  0.00
Output  | 0          | 0          | 0          |   0.0 |  0.00
Modify  | 0          | 0          | 0          |   0.0 |  0.00
Other   |            | 8.44e-07   |            |       |100.00

Nlocal:        791.000 ave         791 max         791 min
Histogram: 1 0 0 0 0 0 0 0 0 0
Nghost:        174.000 ave         174 max         174 min
Histogram: 1 0 0 0 0 0 0 0 0 0
Neighs:        43099.0 ave       43099 max       43099 min
Histogram: 1 0 0 0 0 0 0 0 0 0

Total # of neighbors = 43099
Ave neighs/atom = 54.486726
Neighbor list builds = 0
Dangerous builds = 0

### Generated CS TNP from ./BNP/RAL/AuPd30SP2080RAL0.lmp and ./BNP/RAL/PdPt25SP6040RAL2.lmp ###
DONE!
------------------------------------------------------------------------------------------------------------------------------

Total wall time: 0:00:00
LAMMPS (29 Sep 2021)
  using 1 OpenMP thread(s) per MPI task
  using 1 OpenMP thread(s) per MPI task
Reading data file ...
  orthogonal box = (0.0000000 0.0000000 0.0000000) to (40.000000 40.000000 40.000000)
  1 by 1 by 1 MPI processor grid
  reading atoms ...
  791 atoms
  read_data CPU = 0.003 seconds
Reading data file ...
  orthogonal box = (0.0000000 0.0000000 0.0000000) to (40.000000 40.000000 40.000000)
  1 by 1 by 1 MPI processor grid
  reading atoms ...
  555 atoms
  read_data CPU = 0.002 seconds
System init for delete_atoms ...
Neighbor list info ...
  update every 1 steps, delay 10 steps, check yes
  max neighbors/atom: 2000, page size: 100000
  master list distance cutoff = 8.4511323
  ghost atom cutoff = 8.4511323
  binsize = 4.2255661, bins = 10 10 10
  2 neighbor lists, perpetual/occasional/extra = 1 1 0
  (1) command delete_atoms, occasional
      attributes: full, newton on
      pair build: full/bin/atomonly
      stencil: full/bin/3d
      bin: standard
  (2) pair eam/alloy, perpetual
      attributes: half, newton on
      pair build: half/bin/atomonly/newton
      stencil: half/bin/3d
      bin: standard
Deleted 555 atoms, new total = 791
System init for write_data ...
Neighbor list info ...
  update every 1 steps, delay 10 steps, check yes
  max neighbors/atom: 2000, page size: 100000
  master list distance cutoff = 8.4511323
  ghost atom cutoff = 8.4511323
  binsize = 4.2255661, bins = 10 10 10
  1 neighbor lists, perpetual/occasional/extra = 1 0 0
  (1) pair eam/alloy, perpetual
      attributes: half, newton on
      pair build: half/bin/atomonly/newton
      stencil: half/bin/3d
      bin: standard
WARNING: No fixes defined, atoms won't move (../verlet.cpp:55)
Setting up Verlet run ...
  Unit style    : metal
  Current step  : 0
  Time step     : 0.001
Per MPI rank memory allocation (min/avg/max) = 3.326 | 3.326 | 3.326 Mbytes
Step Atoms Temp Press PotEng KinEng TotEng Enthalpy E_vdwl E_coul E_long E_pair Volume Density Lx Ly Lz Fmax v_ecoh 
       0      791            0    -25719.71   -2801.0248            0   -2801.0248   -3828.4156   -2801.0248            0            0   -2801.0248        64000    2.5615909           40           40           40    2.0428323   -3.5411186 
Loop time of 9.79e-07 on 1 procs for 0 steps with 791 atoms

0.0% CPU use with 1 MPI tasks x 1 OpenMP threads

MPI task timing breakdown:
Section |  min time  |  avg time  |  max time  |%varavg| %total
---------------------------------------------------------------
Pair    | 0          | 0          | 0          |   0.0 |  0.00
Neigh   | 0          | 0          | 0          |   0.0 |  0.00
Comm    | 0          | 0          | 0          |   0.0 |  0.00
Output  | 0          | 0          | 0          |   0.0 |  0.00
Modify  | 0          | 0          | 0          |   0.0 |  0.00
Other   |            | 9.79e-07   |            |       |100.00

Nlocal:        791.000 ave         791 max         791 min
Histogram: 1 0 0 0 0 0 0 0 0 0
Nghost:        174.000 ave         174 max         174 min
Histogram: 1 0 0 0 0 0 0 0 0 0
Neighs:        43099.0 ave       43099 max       43099 min
Histogram: 1 0 0 0 0 0 0 0 0 0

Total # of neighbors = 43099
Ave neighs/atom = 54.486726
Neighbor list builds = 0
Dangerous builds = 0

### Generated CS TNP from ./BNP/RAL/AuPd30SP2080RAL0.lmp and ./BNP/RAL/PdPt25SP8020RAL0.lmp ###
DONE!
------------------------------------------------------------------------------------------------------------------------------

Total wall time: 0:00:00
LAMMPS (29 Sep 2021)
  using 1 OpenMP thread(s) per MPI task
  using 1 OpenMP thread(s) per MPI task
Reading data file ...
  orthogonal box = (0.0000000 0.0000000 0.0000000) to (40.000000 40.000000 40.000000)
  1 by 1 by 1 MPI processor grid
  reading atoms ...
  791 atoms
  read_data CPU = 0.002 seconds
Reading data file ...
  orthogonal box = (0.0000000 0.0000000 0.0000000) to (40.000000 40.000000 40.000000)
  1 by 1 by 1 MPI processor grid
  reading atoms ...
  555 atoms
  read_data CPU = 0.002 seconds
System init for delete_atoms ...
Neighbor list info ...
  update every 1 steps, delay 10 steps, check yes
  max neighbors/atom: 2000, page size: 100000
  master list distance cutoff = 8.4511323
  ghost atom cutoff = 8.4511323
  binsize = 4.2255661, bins = 10 10 10
  2 neighbor lists, perpetual/occasional/extra = 1 1 0
  (1) command delete_atoms, occasional
      attributes: full, newton on
      pair build: full/bin/atomonly
      stencil: full/bin/3d
      bin: standard
  (2) pair eam/alloy, perpetual
      attributes: half, newton on
      pair build: half/bin/atomonly/newton
      stencil: half/bin/3d
      bin: standard
Deleted 555 atoms, new total = 791
System init for write_data ...
Neighbor list info ...
  update every 1 steps, delay 10 steps, check yes
  max neighbors/atom: 2000, page size: 100000
  master list distance cutoff = 8.4511323
  ghost atom cutoff = 8.4511323
  binsize = 4.2255661, bins = 10 10 10
  1 neighbor lists, perpetual/occasional/extra = 1 0 0
  (1) pair eam/alloy, perpetual
      attributes: half, newton on
      pair build: half/bin/atomonly/newton
      stencil: half/bin/3d
      bin: standard
WARNING: No fixes defined, atoms won't move (../verlet.cpp:55)
Setting up Verlet run ...
  Unit style    : metal
  Current step  : 0
  Time step     : 0.001
Per MPI rank memory allocation (min/avg/max) = 3.326 | 3.326 | 3.326 Mbytes
Step Atoms Temp Press PotEng KinEng TotEng Enthalpy E_vdwl E_coul E_long E_pair Volume Density Lx Ly Lz Fmax v_ecoh 
       0      791            0   -25417.214     -2802.88            0     -2802.88   -3818.1874     -2802.88            0            0     -2802.88        64000    2.5615909           40           40           40    2.0143785    -3.543464 
Loop time of 9.21e-07 on 1 procs for 0 steps with 791 atoms

0.0% CPU use with 1 MPI tasks x 1 OpenMP threads

MPI task timing breakdown:
Section |  min time  |  avg time  |  max time  |%varavg| %total
---------------------------------------------------------------
Pair    | 0          | 0          | 0          |   0.0 |  0.00
Neigh   | 0          | 0          | 0          |   0.0 |  0.00
Comm    | 0          | 0          | 0          |   0.0 |  0.00
Output  | 0          | 0          | 0          |   0.0 |  0.00
Modify  | 0          | 0          | 0          |   0.0 |  0.00
Other   |            | 9.21e-07   |            |       |100.00

Nlocal:        791.000 ave         791 max         791 min
Histogram: 1 0 0 0 0 0 0 0 0 0
Nghost:        174.000 ave         174 max         174 min
Histogram: 1 0 0 0 0 0 0 0 0 0
Neighs:        43099.0 ave       43099 max       43099 min
Histogram: 1 0 0 0 0 0 0 0 0 0

Total # of neighbors = 43099
Ave neighs/atom = 54.486726
Neighbor list builds = 0
Dangerous builds = 0

### Generated CS TNP from ./BNP/RAL/AuPd30SP2080RAL0.lmp and ./BNP/RAL/PdPt25SP8020RAL1.lmp ###
DONE!
------------------------------------------------------------------------------------------------------------------------------

Total wall time: 0:00:00
LAMMPS (29 Sep 2021)
  using 1 OpenMP thread(s) per MPI task
  using 1 OpenMP thread(s) per MPI task
Reading data file ...
  orthogonal box = (0.0000000 0.0000000 0.0000000) to (40.000000 40.000000 40.000000)
  1 by 1 by 1 MPI processor grid
  reading atoms ...
  791 atoms
  reading velocities ...
  791 velocities
  read_data CPU = 0.006 seconds
Reading data file ...
  orthogonal box = (0.0000000 0.0000000 0.0000000) to (40.000000 40.000000 40.000000)
  1 by 1 by 1 MPI processor grid
  reading atoms ...
  135 atoms
  read_data CPU = 0.002 seconds
System init for delete_atoms ...
Neighbor list info ...
  update every 1 steps, delay 10 steps, check yes
  max neighbors/atom: 2000, page size: 100000
  master list distance cutoff = 8.4511323
  ghost atom cutoff = 8.4511323
  binsize = 4.2255661, bins = 10 10 10
  2 neighbor lists, perpetual/occasional/extra = 1 1 0
  (1) command delete_atoms, occasional
      attributes: full, newton on
      pair build: full/bin/atomonly
      stencil: full/bin/3d
      bin: standard
  (2) pair eam/alloy, perpetual
      attributes: half, newton on
      pair build: half/bin/atomonly/newton
      stencil: half/bin/3d
      bin: standard
Deleted 297 atoms, new total = 629
System init for write_data ...
Neighbor list info ...
  update every 1 steps, delay 10 steps, check yes
  max neighbors/atom: 2000, page size: 100000
  master list distance cutoff = 8.4511323
  ghost atom cutoff = 8.4511323
  binsize = 4.2255661, bins = 10 10 10
  1 neighbor lists, perpetual/occasional/extra = 1 0 0
  (1) pair eam/alloy, perpetual
      attributes: half, newton on
      pair build: half/bin/atomonly/newton
      stencil: half/bin/3d
      bin: standard
WARNING: No fixes defined, atoms won't move (../verlet.cpp:55)
Setting up Verlet run ...
  Unit style    : metal
  Current step  : 0
  Time step     : 0.001
Per MPI rank memory allocation (min/avg/max) = 3.325 | 3.325 | 3.325 Mbytes
Step Atoms Temp Press PotEng KinEng TotEng Enthalpy E_vdwl E_coul E_long E_pair Volume Density Lx Ly Lz Fmax v_ecoh 
       0      629            0   -37244.974   -2042.7753            0   -2042.7753   -3530.5504   -2042.7753            0            0   -2042.7753        64000    2.6017812           40           40           40    2.0666471   -3.2476554 
Loop time of 1.132e-06 on 1 procs for 0 steps with 629 atoms

0.0% CPU use with 1 MPI tasks x 1 OpenMP threads

MPI task timing breakdown:
Section |  min time  |  avg time  |  max time  |%varavg| %total
---------------------------------------------------------------
Pair    | 0          | 0          | 0          |   0.0 |  0.00
Neigh   | 0          | 0          | 0          |   0.0 |  0.00
Comm    | 0          | 0          | 0          |   0.0 |  0.00
Output  | 0          | 0          | 0          |   0.0 |  0.00
Modify  | 0          | 0          | 0          |   0.0 |  0.00
Other   |            | 1.132e-06  |            |       |100.00

Nlocal:        629.000 ave         629 max         629 min
Histogram: 1 0 0 0 0 0 0 0 0 0
Nghost:        174.000 ave         174 max         174 min
Histogram: 1 0 0 0 0 0 0 0 0 0
Neighs:        23677.0 ave       23677 max       23677 min
Histogram: 1 0 0 0 0 0 0 0 0 0

Total # of neighbors = 23677
Ave neighs/atom = 37.642289
Neighbor list builds = 0
Dangerous builds = 0

### Generated CS TNP from ./BNP/CS/Au30SPPd25SPCS.lmp and ./MNP/Pt15SP.lmp ###
DONE!
------------------------------------------------------------------------------------------------------------------------------

Total wall time: 0:00:00
LAMMPS (29 Sep 2021)
  using 1 OpenMP thread(s) per MPI task
  using 1 OpenMP thread(s) per MPI task
Reading data file ...
  orthogonal box = (0.0000000 0.0000000 0.0000000) to (40.000000 40.000000 40.000000)
  1 by 1 by 1 MPI processor grid
  reading atoms ...
  791 atoms
  reading velocities ...
  791 velocities
  read_data CPU = 0.003 seconds
Reading data file ...
  orthogonal box = (0.0000000 0.0000000 0.0000000) to (40.000000 40.000000 40.000000)
  1 by 1 by 1 MPI processor grid
  reading atoms ...
  43 atoms
  read_data CPU = 0.001 seconds
System init for delete_atoms ...
Neighbor list info ...
  update every 1 steps, delay 10 steps, check yes
  max neighbors/atom: 2000, page size: 100000
  master list distance cutoff = 8.4511323
  ghost atom cutoff = 8.4511323
  binsize = 4.2255661, bins = 10 10 10
  2 neighbor lists, perpetual/occasional/extra = 1 1 0
  (1) command delete_atoms, occasional
      attributes: full, newton on
      pair build: full/bin/atomonly
      stencil: full/bin/3d
      bin: standard
  (2) pair eam/alloy, perpetual
      attributes: half, newton on
      pair build: half/bin/atomonly/newton
      stencil: half/bin/3d
      bin: standard
Deleted 135 atoms, new total = 699
System init for write_data ...
Neighbor list info ...
  update every 1 steps, delay 10 steps, check yes
  max neighbors/atom: 2000, page size: 100000
  master list distance cutoff = 8.4511323
  ghost atom cutoff = 8.4511323
  binsize = 4.2255661, bins = 10 10 10
  1 neighbor lists, perpetual/occasional/extra = 1 0 0
  (1) pair eam/alloy, perpetual
      attributes: half, newton on
      pair build: half/bin/atomonly/newton
      stencil: half/bin/3d
      bin: standard
WARNING: No fixes defined, atoms won't move (../verlet.cpp:55)
Setting up Verlet run ...
  Unit style    : metal
  Current step  : 0
  Time step     : 0.001
Per MPI rank memory allocation (min/avg/max) = 3.326 | 3.326 | 3.326 Mbytes
Step Atoms Temp Press PotEng KinEng TotEng Enthalpy E_vdwl E_coul E_long E_pair Volume Density Lx Ly Lz Fmax v_ecoh 
       0      699            0   -32406.905   -2270.5108            0   -2270.5108    -3565.026   -2270.5108            0            0   -2270.5108        64000    2.5834291           40           40           40     1.955823   -3.2482272 
Loop time of 1.174e-06 on 1 procs for 0 steps with 699 atoms

85.2% CPU use with 1 MPI tasks x 1 OpenMP threads

MPI task timing breakdown:
Section |  min time  |  avg time  |  max time  |%varavg| %total
---------------------------------------------------------------
Pair    | 0          | 0          | 0          |   0.0 |  0.00
Neigh   | 0          | 0          | 0          |   0.0 |  0.00
Comm    | 0          | 0          | 0          |   0.0 |  0.00
Output  | 0          | 0          | 0          |   0.0 |  0.00
Modify  | 0          | 0          | 0          |   0.0 |  0.00
Other   |            | 1.174e-06  |            |       |100.00

Nlocal:        699.000 ave         699 max         699 min
Histogram: 1 0 0 0 0 0 0 0 0 0
Nghost:        174.000 ave         174 max         174 min
Histogram: 1 0 0 0 0 0 0 0 0 0
Neighs:        29823.0 ave       29823 max       29823 min
Histogram: 1 0 0 0 0 0 0 0 0 0

Total # of neighbors = 29823
Ave neighs/atom = 42.665236
Neighbor list builds = 0
Dangerous builds = 0

### Generated CS TNP from ./BNP/CS/Au30SPPd25SPCS.lmp and ./MNP/Pt10SP.lmp ###
DONE!
------------------------------------------------------------------------------------------------------------------------------

Total wall time: 0:00:00
LAMMPS (29 Sep 2021)
  using 1 OpenMP thread(s) per MPI task
  using 1 OpenMP thread(s) per MPI task
Reading data file ...
  orthogonal box = (0.0000000 0.0000000 0.0000000) to (40.000000 40.000000 40.000000)
  1 by 1 by 1 MPI processor grid
  reading atoms ...
  791 atoms
  reading velocities ...
  791 velocities
  read_data CPU = 0.003 seconds
Reading data file ...
  orthogonal box = (0.0000000 0.0000000 0.0000000) to (40.000000 40.000000 40.000000)
  1 by 1 by 1 MPI processor grid
  reading atoms ...
  135 atoms
  read_data CPU = 0.002 seconds
System init for delete_atoms ...
Neighbor list info ...
  update every 1 steps, delay 10 steps, check yes
  max neighbors/atom: 2000, page size: 100000
  master list distance cutoff = 8.4511323
  ghost atom cutoff = 8.4511323
  binsize = 4.2255661, bins = 10 10 10
  2 neighbor lists, perpetual/occasional/extra = 1 1 0
  (1) command delete_atoms, occasional
      attributes: full, newton on
      pair build: full/bin/atomonly
      stencil: full/bin/3d
      bin: standard
  (2) pair eam/alloy, perpetual
      attributes: half, newton on
      pair build: half/bin/atomonly/newton
      stencil: half/bin/3d
      bin: standard
Deleted 297 atoms, new total = 629
System init for write_data ...
Neighbor list info ...
  update every 1 steps, delay 10 steps, check yes
  max neighbors/atom: 2000, page size: 100000
  master list distance cutoff = 8.4511323
  ghost atom cutoff = 8.4511323
  binsize = 4.2255661, bins = 10 10 10
  1 neighbor lists, perpetual/occasional/extra = 1 0 0
  (1) pair eam/alloy, perpetual
      attributes: half, newton on
      pair build: half/bin/atomonly/newton
      stencil: half/bin/3d
      bin: standard
WARNING: No fixes defined, atoms won't move (../verlet.cpp:55)
Setting up Verlet run ...
  Unit style    : metal
  Current step  : 0
  Time step     : 0.001
Per MPI rank memory allocation (min/avg/max) = 3.325 | 3.325 | 3.325 Mbytes
Step Atoms Temp Press PotEng KinEng TotEng Enthalpy E_vdwl E_coul E_long E_pair Volume Density Lx Ly Lz Fmax v_ecoh 
       0      629            0   -31582.769   -2223.0822            0   -2223.0822   -3484.6768   -2223.0822            0            0   -2223.0822        64000    3.1515415           40           40           40    1.6522305   -3.5343119 
Loop time of 1.047e-06 on 1 procs for 0 steps with 629 atoms

95.5% CPU use with 1 MPI tasks x 1 OpenMP threads

MPI task timing breakdown:
Section |  min time  |  avg time  |  max time  |%varavg| %total
---------------------------------------------------------------
Pair    | 0          | 0          | 0          |   0.0 |  0.00
Neigh   | 0          | 0          | 0          |   0.0 |  0.00
Comm    | 0          | 0          | 0          |   0.0 |  0.00
Output  | 0          | 0          | 0          |   0.0 |  0.00
Modify  | 0          | 0          | 0          |   0.0 |  0.00
Other   |            | 1.047e-06  |            |       |100.00

Nlocal:        629.000 ave         629 max         629 min
Histogram: 1 0 0 0 0 0 0 0 0 0
Nghost:        174.000 ave         174 max         174 min
Histogram: 1 0 0 0 0 0 0 0 0 0
Neighs:        22009.0 ave       22009 max       22009 min
Histogram: 1 0 0 0 0 0 0 0 0 0

Total # of neighbors = 22009
Ave neighs/atom = 34.990461
Neighbor list builds = 0
Dangerous builds = 0

### Generated CS TNP from ./BNP/CS/Au30SPPd20SPCS.lmp and ./MNP/Pt15SP.lmp ###
DONE!
------------------------------------------------------------------------------------------------------------------------------

Total wall time: 0:00:00
