561
Atoms. Timestep: 0
Pt 5.64913 6.39687 15.2314
Au 5.46911 7.97131 13.1227
Pd 5.63426 9.74924 11.3043
Au 5.51574 8.08708 17.0882
Pd 5.49741 9.77653 14.9976
Pd 5.80112 9.6371 19.3236
Au 5.45303 11.6287 9.50882
Pd 5.60106 13.3884 7.63425
Au 5.29802 11.5255 13.1569
Pd 5.48416 13.4801 11.4372
Au 5.55835 11.1897 17.26
Pd 5.35199 13.3238 15.1602
Au 5.64431 11.7317 21.017
Pd 5.32192 13.5323 19.2009
Pd 5.57843 13.2884 22.8636
Au 5.61397 15.1773 5.81955
Au 5.66732 15.301 9.48905
Pd 5.74333 17.0671 7.557
Au 5.37583 15.2418 13.3088
Pd 5.71208 17.0623 11.4595
Au 5.18419 15.2111 16.954
Pd 5.67037 17.1907 15.1855
Au 5.31235 15.2258 21.2365
Pd 5.62508 16.8875 19.1992
Au 5.72103 15.1242 24.8443
Pd 5.7304 16.8425 23.0846
Au 5.72275 18.8943 9.50852
Au 5.52226 18.9323 13.2178
Pd 5.75853 20.7603 11.3791
Au 5.33228 18.8694 17.2573
Pd 5.55294 20.6724 15.2577
Au 5.43273 18.7152 21.176
Pd 5.77516 20.6706 19.2523
Au 5.52295 22.5392 13.2526
Au 5.23567 22.1653 17.1267
Pd 5.71396 23.9697 15.3892
Pd 7.53949 6.28268 13.485
Pd 9.67612 6.08771 11.7759
Pd 7.68518 6.23608 17.0001
Pd 9.40514 6.12499 15.1289
Pd 9.47824 6.21959 19.0069
Pd 7.47083 9.65732 9.50801
Au 9.25625 7.81184 9.5448
Pd 9.24515 9.73587 7.56911
Au 7.60069 7.81502 11.4402
Pd 7.31633 9.8107 13.1812
Au 9.38414 8.0668 13.3817
Pd 9.20812 9.71839 11.352
Au 7.44267 8.17307 15.213
Pd 7.53987 9.62997 17.3056
Au 9.50776 8.00338 17.0819
Pd 9.42762 9.91093 15.3086
Au 7.5418 7.88074 19.0376
Pd 7.56034 9.76044 20.9702
Au 9.57819 7.85965 21.0557
Pd 9.39803 9.84135 19.157
Pd 9.67891 9.72093 22.7793
Pd 7.65702 13.537 5.91198
Au 9.36417 11.5315 5.69037
Au 7.38582 11.5929 7.66024
Pd 7.3812 13.4757 9.40333
Au 9.25692 11.5336 9.53002
Pd 9.32145 13.364 7.67423
Au 7.36091 11.7073 11.3819
Pd 7.21931 13.3107 13.3749
Au 9.35195 11.5229 13.2603
Pd 9.3846 13.3511 11.2551
Au 7.33765 11.5519 15.3363
Pd 6.9688 13.4121 17.242
Au 9.20551 11.6899 17.1787
Pd 9.26218 13.4905 15.2172
Au 7.462 11.7346 19.1348
Pd 7.31935 13.4511 21.1464
Au 9.33503 11.6272 21.0841
Pd 9.455 13.4776 19.0072
Au 7.4338 11.4198 23.0862
Pd 7.3485 13.2936 24.6855
Au 9.39774 11.5323 24.8838
Pd 9.4506 13.3517 23.0795
Pd 7.56965 16.9635 5.46874
Au 9.39237 15.2544 5.48225
Au 7.49922 15.3345 7.55333
Pd 7.58448 17.0131 9.58817
Au 9.45857 15.3443 9.4009
Pd 9.36215 17.1647 7.37009
Au 7.47244 15.1339 11.4646
Pd 7.47104 17.0654 13.2424
Au 9.36727 15.168 13.2625
Pd 9.54644 17.0718 11.3037
Au 7.38331 15.1296 15.1605
Pd 7.27776 16.9888 17.287
Au 9.29789 15.1696 17.1216
Pd 9.25897 16.9353 15.0786
Au 7.32023 15.1104 19.1128
Pd 7.41357 17.1388 21.1807
Au 9.4349 15.1696 21.0974
Pd 9.18754 16.8394 19.2299
Au 7.55527 15.0865 22.996
Pd 7.46462 17.1005 24.8277
Au 9.3069 15.1287 25.0999
Pd 9.23629 17.0529 23.0381
Au 9.55347 18.654 5.36917
Au 7.49489 18.913 7.30558
Pd 7.40695 20.8662 9.37046
Au 9.2663 18.9716 9.32064
Pd 9.53319 20.7162 7.47122
Au 7.49934 18.982 11.4473
Pd 7.34598 20.7656 13.2306
Au 9.43843 18.9403 13.3697
Pd 9.19955 20.9099 11.188
Au 7.38524 18.957 15.3408
Pd 7.38209 20.666 17.3035
Au 9.34912 18.6346 17.1456
Pd 9.48333 20.6328 15.2606
Au 7.52511 18.7492 19.1272
Pd 7.38256 20.7191 21.1289
Au 9.2245 18.9802 21.1225
Pd 9.44594 20.6675 19.1496
Au 7.16675 18.8828 23.0717
Au 9.15622 18.9158 24.8668
Pd 9.26458 20.7568 23.037
Au 9.32498 22.5272 9.36773
Au 7.47953 22.8974 11.3428
Pd 7.63792 24.2107 13.6813
Au 9.44625 22.4161 13.2309
Pd 9.59914 24.3416 11.4996
Au 7.46393 22.3222 15.2562
Pd 7.55718 24.1121 17.0739
Au 9.42088 22.369 17.2056
Pd 9.45079 24.1739 15.3527
Au 7.39925 22.6924 19.0397
Au 9.17812 22.4568 21.0218
Pd 9.49243 24.3395 19.0782
Pd 11.2166 6.05999 9.67184
Pd 13.3672 6.06855 7.99518
Pd 11.4487 6.09232 13.4091
Pd 13.1548 6.13927 11.3012
Pd 11.3993 6.10579 17.1636
Pd 13.2626 6.16333 15.3085
Pd 11.4067 6.06758 20.7166
Pd 13.2452 5.94251 18.8743
Pd 13.5217 6.04057 22.6893
Pd 11.3178 9.64372 5.94007
Au 13.3206 7.83709 5.9975
Au 11.2859 7.86171 7.65452
Pd 11.1235 9.85031 9.52785
Au 13.0237 7.89817 9.65425
Pd 13.0658 9.72544 7.72624
Au 11.2542 8.05944 11.5218
Pd 11.3372 9.88112 13.3272
Au 13.2298 7.8584 13.2704
Pd 13.1844 9.90949 11.4729
Au 11.3924 7.98828 15.168
Pd 11.2637 9.85519 17.2269
Au 13.2767 7.95115 17.1412
Pd 13.2748 9.85462 15.1205
Au 11.2649 7.96001 19.0767
Pd 11.5426 9.7966 20.9969
Au 13.2856 7.79015 20.7717
Pd 13.291 9.89422 19.1694
Au 11.4136 7.7021 22.9252
Pd 11.4017 9.6112 24.6265
Au 13.4123 7.90393 24.6925
Pd 13.3029 9.66314 22.9465
Pd 11.3571 13.2402 5.54725
Au 13.2167 11.2674 5.52436
Au 11.1632 11.6211 7.52953
Pd 11.1913 13.411 9.55838
Au 13.2131 11.5767 9.45259
Pd 13.3405 13.2942 7.08914
Au 11.3217 11.652 11.4087
Pd 11.273 13.5046 13.2518
Au 13.3031 11.7082 13.3657
Pd 13.2488 13.552 11.3571
Au 11.2571 11.7062 15.2008
Pd 11.3505 13.4672 17.1274
Au 13.1876 11.6267 17.2299
Pd 13.2941 13.6045 15.3626
Au 11.1957 11.5904 19.2221
Pd 11.3592 13.4796 21.2104
Au 13.2879 11.6891 20.9945
Pd 13.2823 13.3608 18.9573
Au 11.4539 11.5417 23.0155
Pd 11.3577 13.3779 24.8946
Au 13.364 11.3945 24.9761
Pd 13.3195 13.2981 23.1516
Pd 11.4087 16.9539 5.48152
Au 13.2915 15.179 5.20523
Au 11.2993 15.1391 7.34639
Pd 11.3084 17.0411 9.42257
Au 13.2898 15.3072 9.19253
Pd 13.1975 17.0099 7.18044
Au 11.2495 15.3548 11.3375
Pd 11.2655 17.2185 13.119
Au 13.2309 15.2829 13.3065
Pd 13.0741 17.2461 11.1607
Au 11.3419 15.2858 15.2702
Pd 11.3208 16.9622 17.1861
Au 13.405 15.3505 17.276
Pd 13.5299 16.9557 15.2317
Au 11.3526 15.2847 19.1105
Pd 11.204 17.1813 21.0687
Au 13.1649 15.2329 21.1367
Pd 13.3052 17.1402 19.2075
Au 11.2036 15.3554 23.1821
Pd 11.1545 17.0529 25.0002
Au 13.2017 15.0956 25.0884
Pd 13.2313 17.0666 23.063
Pd 11.4766 20.5605 5.50424
Au 13.285 18.8621 5.36847
Au 11.2755 18.8052 7.41509
Pd 11.3669 20.762 9.31637
Au 13.2655 18.8135 9.26683
Pd 13.3331 20.7199 7.41633
Au 11.2646 19.2289 11.2313
Pd 11.5976 20.7004 13.4569
Au 13.3733 18.6934 13.2738
Pd 13.3832 20.6781 11.209
Au 11.4201 18.7897 15.2162
Pd 11.2365 20.4988 17.1542
Au 13.3 18.7664 17.2784
Pd 13.2232 20.6279 15.2789
Au 11.2766 18.7615 19.1539
Pd 11.2715 20.686 21.2144
Au 13.3045 18.8578 21.1098
Pd 13.3217 20.7232 19.1486
Au 11.1646 18.7872 23.1196
Pd 11.1942 20.6508 24.8507
Au 13.0643 19.0334 25.0963
Pd 13.0741 20.6097 23.1697
Au 13.5912 22.4651 5.6466
Au 11.5089 22.5581 7.43326
Pd 11.4125 24.1001 9.64186
Au 13.433 22.4849 9.49054
Pd 13.5313 24.1886 7.61061
Au 11.4227 22.422 11.3609
Pd 11.2944 24.3843 13.267
Au 13.2982 22.5624 13.3028
Pd 13.2841 24.4572 11.3161
Au 11.425 22.5753 15.2614
Pd 11.2927 24.3982 17.2345
Au 13.1769 22.4281 17.1747
Pd 13.2342 24.2871 15.3735
Au 11.2691 22.4929 19.1488
Pd 11.2652 24.1015 21.1438
Au 13.2495 22.4176 21.1036
Pd 13.1697 24.3043 19.1885
Au 11.1486 22.5377 23.0966
Au 13.1261 22.3016 25.0443
Pd 13.3499 24.0288 23.0974
Pd 15.1476 6.03232 6.31671
Pd 15.322 6.05153 9.5873
Pd 17.094 6.14167 7.85874
Pd 15.1668 6.05891 13.2194
Pd 17.1759 6.23452 11.5623
Pd 15.3031 6.1371 17.0298
Pd 17.0208 6.12046 15.1463
Pd 15.3312 5.93348 20.8074
Pd 17.1574 6.04041 18.892
Pd 15.4062 6.07908 24.2646
Pd 17.1178 6.16358 22.5048
Pd 15.2689 9.62312 5.77586
Au 16.9617 7.83556 5.84822
Au 15.0844 8.00778 7.87869
Pd 15.1219 9.85932 9.5956
Au 17.2031 8.06585 9.43964
Pd 17.2184 9.75323 7.54424
Au 15.0651 7.8625 11.3756
Pd 15.1351 9.76945 13.2364
Au 17.107 7.99839 13.3037
Pd 17.0329 9.76046 11.4002
Au 15.1721 7.95598 15.1754
Pd 15.304 9.88278 17.0398
Au 17.0502 8.08317 17.1235
Pd 17.0777 9.88097 15.1464
Au 15.1585 7.81943 19.0055
Pd 15.186 9.7821 20.9744
Au 17.2023 8.01083 20.8505
Pd 16.9902 9.78618 19.0608
Au 15.3325 7.93799 22.7238
Pd 15.1558 9.73051 24.6358
Au 17.1795 7.91469 24.7178
Pd 17.1137 9.71129 22.7856
Pd 15.2388 13.2034 5.40034
Au 17.0921 11.4345 5.58987
Au 15.1425 11.5216 7.40442
Pd 15.1461 13.4399 9.16527
Au 17.0249 11.6339 9.34454
Pd 16.9926 13.4067 7.29816
Au 15.166 11.6541 11.3117
Pd 15.3308 13.5491 13.1932
Au 17.112 11.4809 13.2986
Pd 17.0973 13.466 11.2443
Au 15.2226 11.7386 15.1288
Pd 15.2938 13.4452 17.1317
Au 17.3247 11.6611 17.1176
Pd 17.1851 13.3562 15.1219
Au 15.2651 11.6819 18.9908
Pd 15.2682 13.5301 21.0575
Au 17.0678 11.5897 20.9409
Pd 17.3244 13.5583 19.0992
Au 15.3664 11.6893 22.929
Pd 15.1247 13.3618 24.9747
Au 17.2501 11.6756 24.8915
Pd 17.0669 13.5202 23.1494
Pd 15.1538 17.0806 5.37695
Au 17.188 15.1272 5.21972
Au 15.257 15.2713 7.15903
Pd 15.235 17.0701 9.20775
Au 17.1355 15.318 9.26078
Pd 17.1489 16.9611 7.21864
Au 15.1333 15.4303 11.2952
Pd 15.4161 16.941 13.4558
Au 17.1766 15.2777 13.1663
Pd 17.1932 17.0257 11.2931
Au 15.2858 15.0952 15.1609
Pd 15.2742 17.0764 17.1196
Au 17.3033 15.241 17.0753
Pd 17.3427 16.944 15.2021
Au 15.2537 15.3478 19.0803
Pd 15.2956 17.1078 20.9351
Au 17.1358 15.2707 21.0929
Pd 17.2704 17.1516 19.0351
Au 15.0658 15.2894 22.9187
Pd 15.0908 17.0514 24.8253
Au 17.046 15.2478 24.9199
Pd 17.0293 17.1046 23.0758
Pd 15.5439 20.5909 5.64085
Au 17.2793 18.8436 5.3101
Au 15.2122 18.8163 7.4147
Pd 15.3554 20.4376 9.42717
Au 17.248 18.7427 9.37202
Pd 17.1827 20.4544 7.47839
Au 15.2585 18.7099 11.2569
Pd 15.3269 20.7114 13.3142
Au 17.1961 18.7945 13.2481
Pd 17.1922 20.6601 11.3055
Au 15.295 18.9028 15.249
Pd 15.1126 20.6587 17.267
Au 17.1503 18.9862 17.1904
Pd 17.1868 20.8362 15.2555
Au 15.2239 18.7974 19.1468
Pd 15.425 20.7473 21.0051
Au 17.3512 19.0162 21.0489
Pd 17.2248 20.8376 19.1219
Au 15.0438 18.8787 23.0966
Pd 15.1443 20.6427 24.98
Au 17.1925 18.9042 25.0164
Pd 17.2777 20.7858 23.0184
Pd 15.6305 24.4545 6.39486
Au 17.2807 22.5095 5.63131
Au 15.4206 22.2946 7.60109
Pd 15.4697 24.5221 9.31813
Au 17.17 22.3449 9.4227
Pd 17.5093 24.2956 7.68803
Au 15.2885 22.6521 11.3557
Pd 15.0866 24.4004 13.388
Au 17.1968 22.501 13.2326
Pd 17.2153 24.3492 11.2051
Au 15.2239 22.5522 15.2225
Pd 15.1012 24.404 17.1052
Au 17.0927 22.6032 17.2024
Pd 17.1402 24.3394 15.2517
Au 15.2263 22.7472 19.1624
Pd 15.0725 24.2339 21.2898
Au 17.0738 22.5553 21.0489
Pd 17.1938 24.3702 19.0787
Au 15.1819 22.2743 23.0584
Pd 15.1613 23.8658 25.043
Au 17.2901 22.409 24.9063
Pd 16.859 24.298 23.0299
Pd 19.0201 6.40016 9.66296
Pd 19.0371 6.30681 13.3095
Pd 20.9706 6.25482 11.5055
Pd 19.127 6.3187 16.9871
Pd 21.1323 6.29088 15.4403
Pd 19.0655 6.15295 20.7368
Pd 20.8655 6.26961 18.7706
Pd 19.0635 9.68751 5.66727
Au 19.1716 7.9235 7.50289
Pd 19.1382 9.90116 9.25278
Au 21.1945 8.08955 9.26811
Pd 21.0173 9.87714 7.47647
Au 19.1175 8.13215 11.4204
Pd 19.1949 9.83439 13.3064
Au 21.2218 8.03993 13.3853
Pd 21.0537 9.69334 11.3889
Au 19.0535 8.03918 15.1615
Pd 19.0588 9.71773 17.1199
Au 21.0909 8.1875 17.0888
Pd 21.1395 9.90642 15.0975
Au 19.0095 8.04347 19.0131
Pd 19.0545 9.68602 21.2028
Au 21.0963 7.77327 20.9051
Pd 20.9762 9.76368 19.1212
Au 19.2019 7.85096 22.973
Pd 18.9972 9.72061 24.5822
Pd 21.0051 9.65997 22.7294
Pd 19.094 13.2196 5.63851
Au 21.0788 11.6037 5.49421
Au 19.1209 11.4882 7.39742
Pd 19.0795 13.2916 9.22001
Au 21.0701 11.6714 9.45072
Pd 21.1184 13.3271 7.4531
Au 18.8928 11.6345 11.2527
Pd 19.1863 13.3599 13.3179
Au 21.1439 11.6543 13.2141
Pd 21.1363 13.3785 11.3726
Au 19.1854 11.5257 15.1575
Pd 19.3343 13.4526 17.188
Au 21.0464 11.5477 17.1727
Pd 21.2858 13.445 15.1871
Au 19.1106 11.5757 19.1808
Pd 19.154 13.5405 20.9685
Au 21.0767 11.6375 21.0616
Pd 21.131 13.4612 19.059
Au 19.1351 11.7668 22.7457
Pd 19.1206 13.4159 24.7098
Au 20.9518 11.7463 24.7529
Pd 21.0542 13.4815 23.0272
Pd 19.1468 17.0312 5.49793
Au 20.9351 15.1509 5.39709
Au 19.1684 15.2665 7.32302
Pd 19.0704 16.9541 9.23871
Au 21.0159 15.1403 9.45033
Pd 21.0219 16.9522 7.27711
Au 19.0831 15.0534 11.2836
Pd 19.1927 16.9405 13.3335
Au 21.2085 15.2576 13.2669
Pd 21.0292 16.9262 11.2156
Au 19.1913 15.0871 15.2273
Pd 19.2302 16.9961 17.1036
Au 21.2668 15.2211 17.1274
Pd 21.2228 16.9422 15.1798
Au 19.2264 15.3903 19.0554
Pd 19.1305 17.1025 21.0772
Au 21.042 15.3011 20.9724
Pd 21.2857 17.1696 19.1995
Au 18.9754 15.3431 23.1231
Pd 19.2313 17.1026 24.8767
Au 21.1733 15.2302 25.0332
Pd 20.9966 17.0873 22.9232
Pd 19.1871 20.6452 5.74648
Au 20.9964 18.7663 5.53441
Au 19.1722 18.7714 7.40436
Pd 19.1137 20.6148 9.40606
Au 21.0449 18.827 9.39869
Pd 21.0012 20.642 7.43187
Au 19.155 18.825 11.3338
Pd 19.0766 20.6023 13.4092
Au 21.1444 18.637 13.2258
Pd 21.1273 20.6476 11.3768
Au 19.2002 18.7433 15.3391
Pd 19.0328 20.7956 17.1294
Au 21.1681 18.8456 17.2707
Pd 21.0174 20.5623 15.0966
Au 19.1496 19.0641 19.0503
Pd 19.1968 20.8135 21.0568
Au 21.0553 18.846 21.1325
Pd 21.0854 20.7705 19.1794
Au 19.0806 18.8747 23.1289
Pd 19.1505 20.7506 24.7846
Au 21.1759 19.0803 24.7099
Pd 21.0411 20.9238 22.871
Au 19.1362 22.5003 7.62932
Pd 19.209 24.2076 9.65785
Au 21.0557 22.4091 9.39386
Au 19.0989 22.4354 11.3328
Pd 18.8694 24.4278 13.3237
Au 20.9327 22.4434 13.2905
Pd 20.8488 24.2568 11.6352
Au 19.0724 22.6184 15.1975
Pd 19.2105 24.32 17.1142
Au 21.054 22.3912 17.1359
Pd 20.8392 24.3733 15.0955
Au 19.0483 22.6025 19.1112
Pd 19.1117 24.2904 20.9652
Au 21.1089 22.6037 21.0437
Pd 20.8143 24.3413 18.9828
Au 19.0491 22.7285 23.0632
Pd 22.8657 6.2314 13.5123
Pd 22.866 6.2601 17.0786
Pd 24.6837 6.34273 15.1443
Pd 23.1934 9.92992 9.38753
Au 23.0058 7.86696 11.3187
Pd 23.189 9.8297 13.3053
Au 24.8151 8.01218 13.3354
Pd 24.7591 9.70206 11.2958
Au 23.0803 8.11522 15.3505
Pd 22.9901 10.0075 17.0725
Au 24.8413 8.1543 17.2079
Pd 24.9379 9.82136 15.3531
Au 23.0235 7.99697 18.979
Pd 22.8365 9.81436 20.9254
Pd 24.6769 9.88521 19.098
Pd 22.9595 13.5681 5.55503
Au 23.203 11.3026 7.35076
Pd 23.048 13.4213 9.24825
Au 25.1276 11.5494 9.28821
Pd 24.7739 13.4346 7.45487
Au 23.1422 11.6224 11.2435
Pd 23.1282 13.3819 13.1985
Au 25.2252 11.3633 13.2665
Pd 25.0701 13.1607 11.3037
Au 23.192 11.6584 15.2184
Pd 23.0619 13.2553 17.1772
Au 25.1868 11.6571 17.2324
Pd 25.034 13.2255 15.2095
Au 22.9897 11.6171 19.1225
Pd 22.9397 13.4241 21.0345
Au 24.9003 11.7264 21.0453
Pd 24.8641 13.3169 19.0185
Au 22.8164 11.5682 23.0011
Pd 22.8994 13.5413 24.7575
Pd 24.6618 13.374 22.9229
Pd 22.9724 16.9119 5.71908
Au 24.8084 15.1875 5.77755
Au 22.8085 15.149 7.40767
Pd 22.8739 16.9402 9.39356
Au 25.0159 15.1548 9.49626
Pd 24.6975 17.0213 7.75029
Au 23.2306 15.1075 11.3749
Pd 23.2132 17.0813 13.4264
Au 25.2338 15.1583 13.3932
Pd 24.9858 17.0765 11.5399
Au 23.2147 15.071 15.2911
Pd 23.231 17.0821 17.0833
Au 25.1167 15.2577 17.2293
Pd 25.151 17.1585 15.1403
Au 23.214 15.2908 19.0463
Pd 23.1411 17.1417 21.0136
Au 25.086 15.1591 20.9586
Pd 25.0132 16.9801 19.2085
Au 22.9279 15.3069 22.7995
Pd 22.8922 17.0196 24.646
Au 24.6699 15.3314 24.6009
Pd 24.8761 17.1853 22.8708
Au 23.0015 18.7969 7.60423
Pd 23.0577 20.6682 9.46141
Au 25.0448 18.7806 9.53894
Au 23.0752 18.6174 11.2801
Pd 22.9054 20.6616 13.1197
Au 25.0683 18.928 13.3336
Pd 24.7138 20.5091 11.3416
Au 22.9671 19.0047 15.2732
Pd 23.0962 20.7431 17.1316
Au 25.2087 18.9868 17.1231
Pd 24.8821 20.7003 15.1143
Au 23.0825 18.9063 19.1032
Pd 23.0835 20.6513 20.976
Au 25.0259 18.9754 20.9735
Pd 24.9183 20.732 18.8888
Au 23.0294 18.9244 22.8737
Au 23.011 22.5928 11.3061
Pd 22.7469 24.0446 13.2695
Au 24.9579 22.3981 13.1969
Au 22.8769 22.3776 15.1024
Pd 22.6855 24.1689 16.979
Au 24.8747 22.3926 16.9396
Pd 24.5558 24.1806 14.9921
Au 22.9861 22.5396 18.9275
561
Atoms. Timestep: 200
Pd 5.45808 6.70973 15.3389
Au 5.40416 8.15167 13.3336
Pd 5.65767 9.81908 11.2343
Au 5.45567 8.27438 17.1789
Pd 5.20295 9.82628 15.1545
Pd 5.91049 9.66438 19.2382
Au 5.64179 11.8186 9.46093
Pd 5.75698 13.4845 7.60126
Au 5.48036 11.4905 13.2239
Pd 5.81936 13.4228 11.493
Au 5.15846 11.3957 17.2972
Pd 5.57921 13.3342 15.2804
Au 5.46419 11.6239 20.9603
Pd 5.72399 13.3865 18.9558
Pd 5.65636 13.2871 22.9597
Au 5.7163 15.4345 5.84267
Au 5.41284 15.1787 9.55056
Pd 5.77646 17.012 7.82043
Au 5.34239 15.3377 13.2643
Pd 5.45893 17.1538 11.2844
Au 5.62032 15.096 17.1235
Pd 5.34615 17.0807 15.1328
Au 5.62512 15.1985 21.0576
Pd 5.38072 16.8301 18.8667
Au 5.80065 15.0261 24.8753
Pd 5.76704 16.9658 22.9137
Au 5.57655 18.9547 9.41635
Au 5.31982 18.8575 13.2922
Pd 5.55036 20.5235 11.4416
Au 5.31683 18.8596 17.0162
Pd 5.43307 20.6604 15.2469
Au 5.4859 18.5813 20.9301
Pd 5.48479 20.5532 19.1403
Au 5.57885 22.4121 13.36
Au 5.54965 22.3248 17.1975
Pd 5.80958 24.1157 15.2423
Pd 7.55175 6.30693 13.7006
Pd 9.25327 6.11077 11.6188
Pd 7.27085 6.24286 16.7984
Pd 9.39311 6.05044 15.3552
Pd 9.74082 6.19544 18.8615
Pd 7.7231 9.72543 9.50033
Au 9.36445 7.76643 9.45966
Pd 9.42555 9.78668 7.49205
Au 7.28874 7.7794 11.3538
Pd 7.41342 9.74985 13.0434
Au 9.36198 7.91581 13.3148
Pd 9.3324 9.60694 11.2638
Au 7.40611 8.3002 15.1849
Pd 7.56875 9.87072 17.2844
Au 9.28478 7.93213 17.1133
Pd 9.37067 9.79321 15.2722
Au 7.43994 7.53849 18.9812
Pd 7.52316 9.8697 21.0316
Au 9.20263 7.82772 20.805
Pd 9.2784 9.7847 19.2118
Pd 9.47267 9.65127 22.7814
Pd 7.58817 13.6492 5.70194
Au 9.18376 11.6558 5.4885
Au 7.40107 11.4652 7.4703
Pd 7.5034 13.4693 9.40891
Au 9.39933 11.6855 9.29093
Pd 9.48244 13.3842 7.39594
Au 7.56055 11.5792 11.3256
Pd 7.38307 13.4397 13.359
Au 9.37068 11.6638 13.3573
Pd 9.23008 13.5248 11.3852
Au 7.21803 11.3454 15.254
Pd 7.44171 13.3572 17.1045
Au 9.44328 11.6182 17.1649
Pd 9.39633 13.5041 15.2398
Au 7.46805 11.6192 19.0345
Pd 7.43938 13.4646 20.9026
Au 9.46798 11.5995 21.0896
Pd 9.38072 13.4278 19.096
Au 7.48425 11.48 22.9696
Pd 7.71175 13.3523 24.8229
Au 9.60557 11.424 24.9395
Pd 9.49976 13.3455 23.1199
Pd 7.6341 17.0127 5.72018
Au 9.36312 15.2324 5.29729
Au 7.69971 15.2525 7.53032
Pd 7.55995 17.1364 9.49153
Au 9.43764 15.3106 9.50098
Pd 9.45222 17.2 7.40054
Au 7.4129 15.4204 11.3451
Pd 7.34184 17.2193 13.2663
Au 9.33489 15.4307 13.3365
Pd 9.45774 16.9969 11.3647
Au 7.30727 15.2969 15.1273
Pd 7.34587 17.1505 16.9518
Au 9.28586 15.3273 17.1689
Pd 9.20115 17.131 15.2411
Au 7.3847 15.3736 19.0637
Pd 7.4155 17.0805 21.2589
Au 9.32865 15.2142 21.1625
Pd 9.33899 16.9694 19.1434
Au 7.48234 15.1927 23.014
Pd 7.29063 17.1925 24.7556
Au 9.45145 15.2848 25.1547
Pd 9.3138 16.9666 23.124
Au 9.30833 19.0784 5.65267
Au 7.4406 19.0758 7.53942
Pd 7.48839 20.7082 9.43881
Au 9.50652 18.9093 9.38817
Pd 9.4469 20.8035 7.53005
Au 7.38178 18.8457 11.2643
Pd 7.53911 20.6555 13.1986
Au 9.43703 18.8903 13.2203
Pd 9.43658 20.7451 11.3456
Au 7.30232 19.0099 15.0583
Pd 7.28506 20.5445 17.359
Au 9.32848 18.9724 17.2688
Pd 9.45025 20.7038 15.1873
Au 7.30783 18.6109 19.0936
Pd 7.41787 20.6654 21.0225
Au 9.22752 18.7184 21.083
Pd 9.30445 20.5981 19.2396
Au 7.28615 19.0843 23.0001
Au 9.34996 18.885 24.8872
Pd 9.34628 20.7755 22.94
Au 9.50758 22.5364 9.3255
Au 7.47855 22.4822 11.2945
Pd 7.49325 24.082 13.6071
Au 9.42431 22.428 13.3887
Pd 9.58208 24.0858 11.5215
Au 7.53852 22.1411 15.326
Pd 7.4815 23.9747 17.1187
Au 9.38319 22.3657 17.2015
Pd 9.36355 24.1875 15.3746
Au 7.24839 22.4348 19.16
Au 9.26579 22.5776 21.0201
Pd 9.2944 24.0992 19.0375
Pd 11.4648 6.03292 9.78898
Pd 13.1321 6.21888 7.74985
Pd 11.2164 6.13409 13.373
Pd 13.3673 6.17066 11.4781
Pd 11.5903 6.12755 17.1155
Pd 13.2473 6.29866 15.1254
Pd 11.5074 6.20186 20.6336
Pd 13.4221 6.29465 18.865
Pd 13.4937 6.08367 22.4702
Pd 11.177 9.62953 5.76322
Au 13.3041 7.73038 5.64339
Au 11.2228 7.75923 7.40718
Pd 11.2557 9.66366 9.34232
Au 13.2606 7.91304 9.52818
Pd 13.0958 9.63075 7.46984
Au 11.2022 7.82916 11.3981
Pd 11.2686 9.8348 13.3242
Au 13.1808 8.00897 13.2851
Pd 13.0715 9.72462 11.3577
Au 11.3322 7.94686 15.23
Pd 11.3391 9.78065 17.2479
Au 13.3722 8.14366 17.0672
Pd 13.2533 10.0044 15.0712
Au 11.3338 8.1421 19.0195
Pd 11.3283 9.8259 20.9731
Au 13.2806 8.10642 20.9252
Pd 13.3191 9.84552 19.1979
Au 11.3546 7.80197 22.7585
Pd 11.4118 9.56832 24.6542
Au 13.4534 7.93686 24.6592
Pd 13.2373 9.72446 22.7421
Pd 11.3778 13.2682 5.45686
Au 13.0862 11.3725 5.41187
Au 11.3242 11.5741 7.27576
Pd 11.2209 13.4508 9.29017
Au 13.0878 11.6386 9.36864
Pd 13.2568 13.3114 7.37476
Au 11.2282 11.5883 11.3423
Pd 11.3119 13.5229 13.3422
Au 13.1344 11.6817 13.1572
Pd 13.2794 13.4693 11.1964
Au 11.2819 11.6682 15.221
Pd 11.3271 13.4782 17.0564
Au 13.2719 11.7619 17.1779
Pd 13.287 13.419 15.0821
Au 11.453 11.6723 19.113
Pd 11.3136 13.5701 21.2629
Au 13.3195 11.6576 21.1131
Pd 13.3193 13.5071 19.1236
Au 11.3265 11.6091 23.0094
Pd 11.4262 13.4304 24.9729
Au 13.299 11.5532 24.8949
Pd 13.3486 13.4212 23.1209
Pd 11.3635 17.139 5.50716
Au 13.2121 14.9994 5.3737
Au 11.3508 15.3289 7.20062
Pd 11.3897 17.0785 9.3291
Au 13.2638 15.342 9.21471
Pd 13.4184 17.1878 7.19694
Au 11.3482 15.2391 11.238
Pd 11.4243 17.0607 13.2532
Au 13.3848 15.2012 13.2704
Pd 13.35 16.9386 11.3002
Au 11.2176 15.3254 15.278
Pd 11.2458 17.0151 17.2875
Au 13.1428 15.266 17.2131
Pd 13.3685 16.9117 15.105
Au 11.1756 15.1287 19.1782
Pd 11.2771 17.0903 21.0979
Au 13.3296 15.2462 21.2608
Pd 13.229 17.077 19.1742
Au 11.3114 15.2426 23.1389
Pd 11.169 17.0894 24.7817
Au 13.3715 15.3932 25.1072
Pd 13.3881 17.0828 23.1246
Pd 11.3905 20.78 5.44088
Au 13.377 18.8794 5.35509
Au 11.4782 19.0035 7.29897
Pd 11.3874 20.5389 9.25918
Au 13.3928 18.7917 9.3456
Pd 13.3542 20.5583 7.41231
Au 11.4234 18.6177 11.2798
Pd 11.4617 20.7566 13.3021
Au 13.2381 18.8894 13.3294
Pd 13.3306 20.5615 11.1665
Au 11.354 18.7488 15.2936
Pd 11.373 20.5959 17.1278
Au 13.2633 18.8094 17.1808
Pd 13.2392 20.7236 15.3801
Au 11.2188 19.0255 19.2012
Pd 11.0753 20.7744 21.3007
Au 13.1039 18.8168 21.1747
Pd 13.3449 20.5458 19.1156
Au 11.2203 18.839 23.0444
Pd 11.2891 20.6618 24.7884
Au 13.2639 19.0587 25.0483
Pd 13.2253 20.6658 22.8485
Au 13.4085 22.5996 5.68104
Au 11.3852 22.5687 7.43489
Pd 11.5773 24.1639 9.5184
Au 13.2827 22.2942 9.32683
Pd 13.3686 24.1828 7.6624
Au 11.4587 22.2824 11.2975
Pd 11.52 24.3173 13.1836
Au 13.3553 22.4324 13.368
Pd 13.2973 24.2127 11.2519
Au 11.4097 22.5365 15.25
Pd 11.2665 24.2007 17.3422
Au 13.3522 22.5335 17.1631
Pd 13.4011 24.2656 15.202
Au 11.2454 22.0502 19.1202
Pd 11.2815 24.1474 20.9254
Au 13.1378 22.453 20.974
Pd 13.2316 24.2676 19.0869
Au 11.3054 22.6567 22.9858
Au 13.2578 22.2824 24.8123
Pd 13.4769 24.0225 22.9058
Pd 15.1911 5.76939 6.71769
Pd 15.1172 6.06018 9.44131
Pd 17.0944 6.00619 8.05413
Pd 15.2227 6.18794 13.463
Pd 17.1929 6.01197 11.3712
Pd 15.2594 6.32386 16.9203
Pd 17.2258 6.13465 15.0726
Pd 15.2937 6.10491 20.8206
Pd 17.1419 6.23005 18.773
Pd 15.1374 6.02503 24.2953
Pd 16.9179 6.02618 22.6031
Pd 15.2279 9.75574 5.55468
Au 16.97 7.76979 5.86134
Au 15.2645 8.07753 7.62077
Pd 15.0891 9.74584 9.55851
Au 17.1567 7.98935 9.5645
Pd 17.1361 9.78338 7.47747
Au 15.201 7.88259 11.3846
Pd 15.258 9.97648 13.2004
Au 17.1333 7.98129 13.1855
Pd 17.2131 9.86425 11.3986
Au 15.2313 8.17339 15.2349
Pd 15.4219 9.92296 17.0945
Au 17.2586 8.0089 16.9321
Pd 17.2081 9.98119 14.984
Au 15.3258 8.12845 18.981
Pd 15.4478 9.85317 21.0378
Au 17.2255 7.93212 20.9776
Pd 17.3157 9.96692 19.1117
Au 15.2366 8.02268 22.772
Pd 15.1232 9.77014 24.7833
Au 16.9254 7.88043 24.6332
Pd 17.2895 9.70487 22.994
Pd 15.1963 13.095 5.39999
Au 17.1272 11.4105 5.41266
Au 15.1246 11.3991 7.48565
Pd 15.1982 13.2524 9.28127
Au 17.1638 11.4868 9.47922
Pd 17.0065 13.2396 7.28391
Au 15.1562 11.7628 11.2578
Pd 15.2155 13.4875 13.3684
Au 17.1531 11.9064 13.2062
Pd 17.3351 13.3936 11.2151
Au 15.2606 11.6361 15.2033
Pd 15.1214 13.6064 17.3271
Au 17.0421 11.7105 17.1975
Pd 17.0992 13.5237 15.3362
Au 15.192 11.6899 19.2285
Pd 15.4001 13.5046 21.4155
Au 17.2634 11.6038 21.138
Pd 17.2152 13.4597 19.3636
Au 15.1896 11.5249 22.9864
Pd 15.2844 13.328 24.9836
Au 17.1877 11.4471 24.8712
Pd 17.3209 13.4507 23.2
Pd 15.3885 16.8807 5.49077
Au 17.0963 15.0067 5.4794
Au 15.1089 15.1266 7.34384
Pd 15.3299 17.0216 9.16562
Au 17.155 15.105 9.23594
Pd 17.2567 16.837 7.29865
Au 15.306 15.1433 11.2505
Pd 15.4704 16.9314 13.3529
Au 17.2363 15.0594 13.3082
Pd 17.1685 16.8702 11.2498
Au 15.2402 15.3199 15.3162
Pd 15.0869 17.0474 17.2025
Au 17.1499 15.2219 17.3283
Pd 17.2759 16.8616 15.3155
Au 15.2539 15.2984 19.3861
Pd 15.1724 17.0614 21.1581
Au 17.1955 15.4608 21.1948
Pd 17.1395 17.1568 19.1371
Au 15.4304 15.3418 23.2345
Pd 15.1868 17.2589 24.9507
Au 17.3103 15.4638 25.0988
Pd 17.149 17.2028 23.1105
Pd 15.428 20.5747 5.36403
Au 17.2903 18.9021 5.35017
Au 15.376 18.8656 7.22113
Pd 15.4311 20.6549 9.394
Au 17.2325 18.8625 9.32878
Pd 17.4646 20.6962 7.47552
Au 15.3875 18.7247 11.2531
Pd 15.4245 20.7183 13.2602
Au 17.1638 18.7132 13.2586
Pd 17.2099 20.6084 11.3833
Au 15.1618 18.8141 15.2296
Pd 15.2249 20.5438 17.2474
Au 17.2498 18.7728 17.2387
Pd 17.2175 20.6433 15.3681
Au 15.1368 18.7663 19.106
Pd 15.1687 20.5398 20.9108
Au 17.0601 18.9677 21.1785
Pd 17.1587 20.6055 19.0845
Au 15.2765 19.1109 23.1222
Pd 15.2111 20.7059 25.0692
Au 17.2499 18.7957 25.1305
Pd 17.4233 20.8045 23.0503
Pd 15.2267 24.1973 5.93311
Au 17.0647 22.3772 5.5407
Au 15.3656 22.2287 7.51393
Pd 15.0846 24.1686 9.42794
Au 17.334 22.4788 9.45599
Pd 17.0166 24.0984 7.63959
Au 15.3243 22.4232 11.417
Pd 15.2186 24.3384 13.2934
Au 17.2883 22.5335 13.4564
Pd 17.2051 24.377 11.426
Au 15.2447 22.416 15.326
Pd 15.104 24.3176 17.2169
Au 17.153 22.5869 17.1921
Pd 17.0214 24.388 15.2853
Au 15.148 22.4787 19.1619
Pd 15.1729 24.1157 21.2564
Au 17.1347 22.3205 21.0158
Pd 17.0091 24.0894 19.2727
Au 15.2518 22.1436 22.9018
Pd 15.0935 23.9197 24.568
Au 17.2347 22.2533 25.0622
Pd 17.0662 23.9082 23.1265
Pd 19.0279 6.03152 9.66771
Pd 18.9982 6.19272 13.1977
Pd 20.9953 6.08844 11.4584
Pd 19.2656 6.1467 16.9845
Pd 21.1135 6.28103 15.1372
Pd 18.958 6.1392 20.6645
Pd 20.9548 6.13683 18.9011
Pd 18.8773 9.71263 5.77961
Au 19.0403 7.81554 7.55568
Pd 19.094 9.74756 9.34621
Au 21.0136 7.66032 9.493
Pd 20.9039 9.67348 7.52152
Au 19.14 7.92188 11.3522
Pd 19.0438 10.0143 13.3745
Au 21.0195 8.15717 13.1993
Pd 21.0988 9.6763 11.1825
Au 19.1119 7.99174 15.1326
Pd 19.0358 9.86078 17.076
Au 20.9967 8.09562 17.1128
Pd 20.9435 9.9391 15.2411
Au 19.1526 8.12333 19.0486
Pd 19.0933 9.77832 21.1662
Au 21.0218 7.843 21.1571
Pd 21.2112 9.90515 19.1479
Au 19.0256 7.70584 22.9025
Pd 19.07 9.4122 24.5816
Pd 21.1733 9.82721 22.8535
Pd 19.1382 13.1803 5.41924
Au 20.9114 11.4058 5.53275
Au 19.0302 11.6281 7.40971
Pd 19.1757 13.1984 9.35891
Au 21.1553 11.5875 9.21309
Pd 20.9554 13.3001 7.22199
Au 19.3339 11.5827 11.2617
Pd 19.306 13.4318 13.3225
Au 21.2283 11.5605 13.3166
Pd 21.1673 13.2724 11.4325
Au 19.0892 11.8019 15.2707
Pd 19.1778 13.4552 17.2615
Au 21.2044 11.7329 17.2673
Pd 21.3046 13.2863 15.368
Au 19.2196 11.6276 19.1063
Pd 19.1677 13.4138 21.2011
Au 21.1337 11.7237 21.0839
Pd 21.1114 13.4414 19.1124
Au 19.1509 11.5978 23.1601
Pd 19.006 13.4658 24.8874
Au 21.1027 11.5403 24.8602
Pd 21.1057 13.518 23.059
Pd 19.1628 16.9232 5.67057
Au 21.0799 15.2587 5.42815
Au 19.0345 14.9794 7.37117
Pd 19.0621 16.9078 9.2348
Au 20.9393 15.0035 9.42899
Pd 20.972 16.8942 7.45715
Au 19.2433 15.1457 11.3547
Pd 19.2816 16.8858 13.2369
Au 21.1733 15.0417 13.3584
Pd 21.1197 16.9913 11.3392
Au 19.2272 15.3398 15.2816
Pd 19.2279 17.0846 17.1124
Au 21.0694 15.178 17.2025
Pd 21.1879 17.0487 15.1434
Au 19.1348 15.2504 19.2217
Pd 19.2147 17.1625 21.0691
Au 21.0605 15.3833 21.0271
Pd 21.0788 17.1118 19.1048
Au 19.2115 15.3783 23.1221
Pd 19.2125 17.2116 24.8343
Au 21.0306 15.2571 25.0284
Pd 21.1859 17.326 22.9446
Pd 19.1483 20.7171 5.59126
Au 21.1007 18.78 5.60222
Au 19.1249 18.7739 7.38598
Pd 19.1916 20.7605 9.36654
Au 21.088 18.759 9.39207
Pd 20.9354 20.7396 7.5637
Au 19.0341 18.8613 11.256
Pd 19.0199 20.6103 13.3376
Au 21.0347 18.9502 13.3558
Pd 20.9652 20.6401 11.3202
Au 19.0177 18.8055 15.0653
Pd 19.0385 20.6343 17.227
Au 21.0557 18.9718 17.0844
Pd 20.9166 20.7017 15.1717
Au 19.0981 18.9344 19.2364
Pd 19.2065 20.7264 21.1042
Au 21.0919 19.0586 20.9681
Pd 21.3103 20.7711 19.0775
Au 19.1879 18.8822 22.8996
Pd 19.1829 20.6159 24.8386
Au 21.1544 18.8951 24.9371
Pd 21.2073 20.8129 22.8957
Au 19.113 22.6596 7.21085
Pd 19.0327 24.3798 9.60003
Au 21.0078 22.7526 9.35791
Au 19.127 22.4676 11.3992
Pd 19.197 24.3901 13.2244
Au 21.0254 22.4869 13.2805
Pd 21.0073 24.3449 11.3598
Au 19.0911 22.7403 15.2993
Pd 19.0163 24.3277 17.4247
Au 21.1041 22.521 17.1053
Pd 21.0729 24.2508 15.1933
Au 19.1561 22.3906 19.0976
Pd 19.0637 24.0956 20.828
Au 21.0818 22.7035 21.0477
Pd 20.9961 24.4005 18.9118
Au 19.276 22.4797 22.9504
Pd 22.7442 6.43024 13.327
Pd 22.7288 6.50488 17.0204
Pd 24.4891 6.35391 15.2007
Pd 23.0357 9.80702 9.47892
Au 23.0693 7.91178 11.3197
Pd 23.2455 9.77133 13.2412
Au 24.9115 7.93953 13.3316
Pd 24.8381 9.78316 11.2938
Au 22.85 8.23955 15.1123
Pd 23.0026 9.62882 17.1646
Au 25.0472 8.01442 17.1658
Pd 25.0214 9.70006 15.1789
Au 22.9758 7.96243 19.1241
Pd 22.912 9.77197 20.9965
Pd 24.6724 9.65909 19.0579
Pd 22.7916 13.5933 5.4105
Au 22.9638 11.6361 7.5359
Pd 23.0151 13.3843 9.53631
Au 24.8084 11.6773 9.47842
Pd 24.7366 13.3346 7.51273
Au 23.0881 11.5547 11.393
Pd 23.114 13.4161 13.3379
Au 25.0867 11.5809 13.25
Pd 24.8855 13.3267 11.362
Au 23.178 11.5525 15.353
Pd 23.2523 13.401 17.2
Au 25.0834 11.524 17.2916
Pd 25.0291 13.3155 15.317
Au 23.0885 11.7304 19.0894
Pd 23.0459 13.4775 21.2106
Au 24.9249 11.4649 20.9948
Pd 24.8951 13.4943 19.2285
Au 23.199 11.5196 23.0384
Pd 22.934 13.6729 24.7278
Pd 24.7828 13.5644 22.8752
Pd 22.9217 16.9875 5.85148
Au 24.7149 15.3214 5.55979
Au 22.9437 15.1251 7.6252
Pd 22.7815 16.9539 9.22664
Au 25.0006 15.0642 9.38715
Pd 24.7671 17.0713 7.60883
Au 23.0068 15.2138 11.3721
Pd 22.9831 16.952 13.3871
Au 25.0458 15.2906 13.2434
Pd 24.772 17.0246 11.3228
Au 23.1129 15.147 15.2786
Pd 23.0829 17.0584 17.0843
Au 25.1394 15.308 17.2275
Pd 24.9645 16.9518 15.1388
Au 23.0526 15.2803 19.1922
Pd 22.9319 17.2005 21.1149
Au 25.1074 15.5214 21.0717
Pd 24.7435 16.9308 19.1824
Au 22.9296 15.3479 22.9577
Pd 23.0759 16.9997 24.7219
Au 24.9439 15.2806 24.6381
Pd 24.8404 17.2099 23.0135
Au 23.0669 19.0241 7.33573
Pd 22.7352 20.7466 9.40855
Au 24.6835 18.8856 9.41603
Au 22.9656 18.8655 11.4768
Pd 22.9196 20.668 13.2818
Au 25.0038 18.7101 13.1955
Pd 24.5682 20.6231 11.3643
Au 23.0799 18.8227 15.2084
Pd 22.9258 20.7706 17.1052
Au 24.9526 18.87 17.1337
Pd 24.8473 20.6981 15.2007
Au 22.9933 18.9527 18.9933
Pd 23.073 20.7507 21.0114
Au 24.9179 18.885 20.9485
Pd 24.8057 20.696 18.955
Au 23.1088 19.0999 23.035
Au 22.8669 22.4826 11.3683
Pd 22.7451 24.1725 13.3189
Au 24.7203 22.494 13.318
Au 22.9236 22.3635 15.2037
Pd 22.8777 24.1824 17.084
Au 24.8322 22.5766 17.0462
Pd 24.3925 24.4033 14.9802
Au 23.094 22.7202 19.1494
561
Atoms. Timestep: 400